      -----------------------------------------------------------      
     |                   =====================                   |     
     |                           x T B                           |     
     |                   =====================                   |     
     |                         S. Grimme                         |     
     |          Mulliken Center for Theoretical Chemistry        |     
     |                    University of Bonn                     |     
      -----------------------------------------------------------      

   * xtb version 6.6.1 (8d0f1dd) compiled by 'conda@1efc2f54142f' on 2023-08-01

   xtb is free software: you can redistribute it and/or modify it under
   the terms of the GNU Lesser General Public License as published by
   the Free Software Foundation, either version 3 of the License, or
   (at your option) any later version.
   
   xtb is distributed in the hope that it will be useful,
   but WITHOUT ANY WARRANTY; without even the implied warranty of
   MERCHANTABILITY or FITNESS FOR A PARTICULAR PURPOSE.  See the
   GNU Lesser General Public License for more details.
   
   Cite this work as:
   * C. Bannwarth, E. Caldeweyher, S. Ehlert, A. Hansen, P. Pracht,
     J. Seibert, S. Spicher, S. Grimme, WIREs Comput. Mol. Sci., 2020, 11,
     e01493. DOI: 10.1002/wcms.1493
   
   for GFN2-xTB:
   * C. Bannwarth, S. Ehlert and S. Grimme., J. Chem. Theory Comput., 2019,
     15, 1652-1671. DOI: 10.1021/acs.jctc.8b01176
   for GFN1-xTB:
   * S. Grimme, C. Bannwarth, P. Shushkov, J. Chem. Theory Comput., 2017,
     13, 1989-2009. DOI: 10.1021/acs.jctc.7b00118
   for GFN0-xTB:
   * P. Pracht, E. Caldeweyher, S. Ehlert, S. Grimme, ChemRxiv, 2019, preprint.
     DOI: 10.26434/chemrxiv.8326202.v1
   for GFN-FF:
   * S. Spicher and S. Grimme, Angew. Chem. Int. Ed., 2020, 59, 15665-15673.
     DOI: 10.1002/anie.202004239
   
   for ALPB and GBSA implicit solvation:
   * S. Ehlert, M. Stahn, S. Spicher, S. Grimme, J. Chem. Theory Comput.,
     2021, 17, 4250-4261. DOI: 10.1021/acs.jctc.1c00471
   
   for DFT-D4:
   * E. Caldeweyher, C. Bannwarth and S. Grimme, J. Chem. Phys., 2017,
     147, 034112. DOI: 10.1063/1.4993215
   * E. Caldeweyher, S. Ehlert, A. Hansen, H. Neugebauer, S. Spicher,
     C. Bannwarth and S. Grimme, J. Chem. Phys., 2019, 150, 154122.
     DOI: 10.1063/1.5090222
   * E. Caldeweyher, J.-M. Mewes, S. Ehlert and S. Grimme, Phys. Chem. Chem. Phys.
     2020, 22, 8499-8512. DOI: 10.1039/D0CP00502A
   
   for sTDA-xTB:
   * S. Grimme and C. Bannwarth, J. Chem. Phys., 2016, 145, 054103.
     DOI: 10.1063/1.4959605
   
   in the mass-spec context:
   * V. Asgeirsson, C. Bauer and S. Grimme, Chem. Sci., 2017, 8, 4879.
     DOI: 10.1039/c7sc00601b
   * J. Koopman and S. Grimme, ACS Omega 2019, 4, 12, 15120-15133.
     DOI: 10.1021/acsomega.9b02011
   
   for metadynamics refer to:
   * S. Grimme, J. Chem. Theory Comput., 2019, 155, 2847-2862
     DOI: 10.1021/acs.jctc.9b00143
   
   for SPH calculations refer to:
   * S. Spicher and S. Grimme, J. Chem. Theory Comput., 2021, 17, 1701-1714
     DOI: 10.1021/acs.jctc.0c01306
   
   with help from (in alphabetical order)
   P. Atkinson, C. Bannwarth, F. Bohle, G. Brandenburg, E. Caldeweyher
   M. Checinski, S. Dohm, S. Ehlert, S. Ehrlich, I. Gerasimov, C. Hölzer
   A. Katbashev, J. Koopman, C. Lavigne, S. Lehtola, F. März, M. Müller,
   F. Musil, H. Neugebauer, J. Pisarek, C. Plett, P. Pracht, F. Pultar,
   J. Seibert, P. Shushkov, S. Spicher, M. Stahn, M. Steiner, T. Strunk,
   J. Stückrath, T. Rose, and J. Unsleber
   
 * started run on 2024/11/12 at 01:41:28.267     

           -------------------------------------------------
          |                Calculation Setup                |
           -------------------------------------------------

          program call               : xtb HBPO_tbu.xyz --gfn ff --chrg 0 --uhf 0 --opt --cma
          hostname                   : hpc-m36-6-10
          coordinate file            : HBPO_tbu.xyz
          omp threads                :                     4

   ID    Z sym.   atoms
    1    6 C      1-14, 17-32, 35-54, 58-60, 63-70, 74-76, 79-86, 90-92,
                  95-102, 106-108, 111, 112, 116, 120, 124, 125, 129, 133,
                  137, 138, 142, 146, 150, 151, 155, 159, 163, 164, 168, 172,
                  176, 177, 181, 185
    2    1 H      15, 16, 33, 34, 55-57, 61, 62, 71-73, 77, 78, 87-89, 93,
                  94, 103-105, 109, 110, 113-115, 117-119, 121-123, 126-128,
                  130-132, 134-136, 139-141, 143-145, 147-149, 152-154,
                  156-158, 160-162, 165-167, 169-171, 173-175, 178-180,
                  182-184, 186-188

           -------------------------------------------------
          |                 G F N 2 - x T B                 |
           -------------------------------------------------

        Reference                      10.1021/acs.jctc.8b01176
      * Hamiltonian:
        H0-scaling (s, p, d)           1.850000    2.230000    2.230000
        zeta-weighting                 0.500000
      * Dispersion:
        s8                             2.700000
        a1                             0.520000
        a2                             5.000000
        s9                             5.000000
      * Repulsion:
        kExp                           1.500000    1.000000
        rExp                           1.000000
      * Coulomb:
        alpha                          2.000000
        third order                    shell-resolved
        anisotropic                    true
        a3                             3.000000
        a5                             4.000000
        cn-shift                       1.200000
        cn-exp                         4.000000
        max-rad                        5.000000


          ...................................................
          :                      SETUP                      :
          :.................................................:
          :  # basis functions                 518          :
          :  # atomic orbitals                 518          :
          :  # shells                          298          :
          :  # electrons                       518          :
          :  max. iterations                   250          :
          :  Hamiltonian                  GFN2-xTB          :
          :  restarted?                      false          :
          :  GBSA solvation                  false          :
          :  PC potential                    false          :
          :  electronic temp.          300.0000000     K    :
          :  accuracy                    1.0000000          :
          :  -> integral cutoff          0.2500000E+02      :
          :  -> integral neglect         0.1000000E-07      :
          :  -> SCF convergence          0.1000000E-05 Eh   :
          :  -> wf. convergence          0.1000000E-03 e    :
          :  Broyden damping             0.4000000          :
          ...................................................

 iter      E             dE          RMSdq      gap      omega  full diag
   1   -279.5206401 -0.279521E+03  0.382E+00    0.64       0.0  T
   2   -279.6331687 -0.112529E+00  0.239E+00    0.67       1.0  T
   3   -279.1757820  0.457387E+00  0.136E+00    0.20       1.0  T
   4   -279.6192718 -0.443490E+00  0.563E-01    0.68       1.0  T
   5   -279.6130001  0.627165E-02  0.557E-01    0.73       1.0  T
   6   -279.7026810 -0.896809E-01  0.259E-01    0.65       1.0  T
   7   -279.7213193 -0.186383E-01  0.844E-02    0.63       1.0  T
   8   -279.7226817 -0.136235E-02  0.381E-02    0.64       1.0  T
   9   -279.7226430  0.386333E-04  0.337E-02    0.64       1.0  T
  10   -279.7228448 -0.201794E-03  0.137E-02    0.63       1.0  T
  11   -279.7228896 -0.447133E-04  0.483E-03    0.64       1.5  T
  12   -279.7228928 -0.320057E-05  0.261E-03    0.64       2.8  T
  13   -279.7228940 -0.125449E-05  0.125E-03    0.64       5.8  T
  14   -279.7228942 -0.203984E-06  0.535E-04    0.64      13.6  T
  15   -279.7228942 -0.239277E-07  0.375E-04    0.64      19.4  T

   *** convergence criteria satisfied after 15 iterations ***

         #    Occupation            Energy/Eh            Energy/eV
      -------------------------------------------------------------
         1        2.0000           -0.6773659             -18.4321
       ...           ...                  ...                  ...
       253        2.0000           -0.3438709              -9.3572
       254        2.0000           -0.3391697              -9.2293
       255        2.0000           -0.3373105              -9.1787
       256        2.0000           -0.3359872              -9.1427
       257        2.0000           -0.3213295              -8.7438
       258        2.0000           -0.3205959              -8.7239
       259        2.0000           -0.3137741              -8.5382 (HOMO)
       260        0.0000           -0.2903931              -7.9020 (LUMO)
       261                         -0.2771894              -7.5427
       262                         -0.2677287              -7.2853
       263                         -0.2661270              -7.2417
       264                         -0.2586116              -7.0372
       ...                                ...                  ...
       518                          1.9774324              53.8087
      -------------------------------------------------------------
                  HL-Gap            0.0233810 Eh            0.6362 eV
             Fermi-level           -0.3020830 Eh           -8.2201 eV

 SCC (total)                   0 d,  0 h,  0 min,  2.094 sec
 SCC setup                      ...        0 min,  0.009 sec (  0.417%)
 Dispersion                     ...        0 min,  0.018 sec (  0.879%)
 classical contributions        ...        0 min,  0.007 sec (  0.330%)
 integral evaluation            ...        0 min,  0.083 sec (  3.960%)
 iterations                     ...        0 min,  1.462 sec ( 69.804%)
 molecular gradient             ...        0 min,  0.508 sec ( 24.240%)
 printout                       ...        0 min,  0.008 sec (  0.368%)

         :::::::::::::::::::::::::::::::::::::::::::::::::::::
         ::                     SUMMARY                     ::
         :::::::::::::::::::::::::::::::::::::::::::::::::::::
         :: total energy            -273.786226912124 Eh    ::
         :: gradient norm              1.569944222757 Eh/a0 ::
         :: HOMO-LUMO gap              0.636230041946 eV    ::
         ::.................................................::
         :: SCC energy              -279.722894238355 Eh    ::
         :: -> isotropic ES            0.072187495434 Eh    ::
         :: -> anisotropic ES          0.047971323028 Eh    ::
         :: -> anisotropic XC          0.142541533913 Eh    ::
         :: -> dispersion             -0.361065184495 Eh    ::
         :: repulsion energy           5.940364391532 Eh    ::
         :: add. restraining           0.000000000000 Eh    ::
         :: total charge               0.000000000000 e     ::
         :::::::::::::::::::::::::::::::::::::::::::::::::::::

      ----------------------------------------------------------- 
     |                   =====================                   |
     |                        A N C O P T                        |
     |                   =====================                   |
     |               Approximate Normal Coordinate               |
     |                Rational Function Optimizer                |
      ----------------------------------------------------------- 

          ...................................................
          :                      SETUP                      :
          :.................................................:
          :   optimization level            normal          :
          :   max. optcycles                   564          :
          :   ANC micro-cycles                  20          :
          :   degrees of freedom               558          :
          :.................................................:
          :   RF solver                   davidson          :
          :   write xtbopt.log                true          :
          :   linear?                        false          :
          :   energy convergence         0.5000000E-05 Eh   :
          :   grad. convergence          0.1000000E-02 Eh/α :
          :   maxmium RF displ.          1.0000000          :
          :   Hlow (freq-cutoff)         0.1000000E-01      :
          :   Hmax (freq-cutoff)         5.0000000          :
          :   S6 in model hess.         20.0000000          :
          ...................................................

generating ANC from model Hessian ...
Using Lindh-Hessian (1995)
 Shifting diagonal of input Hessian by    1.3235552473030727E-002
 Lowest  eigenvalues of input Hessian
    0.010000    0.010204    0.000000    0.000000    0.000000    0.000000
    0.000000    0.000000    0.013293    0.013313    0.013410    0.013473
    0.013579    0.013802    0.014002    0.014126    0.014239    0.014465
 Highest eigenvalues
    2.447544    2.449982    2.451660    2.455932    2.458558    2.463332


........................................................................
.............................. CYCLE    1 ..............................
........................................................................

 iter      E             dE          RMSdq      gap      omega  full diag
   1   -279.7228943 -0.279723E+03  0.164E-04    0.64       0.0  T
   2   -279.7228943  0.637050E-08  0.214E-04    0.64      34.1  T
   3   -279.7228943 -0.995414E-08  0.632E-05    0.64     115.3  T
     SCC iter.                  ...        0 min,  0.425 sec
     gradient                   ...        0 min,  0.528 sec
 * total energy  :  -273.7862269 Eh     change       -0.2660749E-07 Eh
   gradient norm :     1.5699417 Eh/α   predicted     0.0000000E+00 (-100.00%)
   displ. norm   :     0.6604678 α      lambda       -0.9513469E+00
   maximum displ.:     0.2514973 α      in ANC's #558, #551, #348, ...

........................................................................
.............................. CYCLE    2 ..............................
........................................................................

 iter      E             dE          RMSdq      gap      omega  full diag
   1   -280.1374638 -0.280137E+03  0.307E-01    0.77       0.0  T
   2   -280.1375023 -0.384968E-04  0.269E-01    0.76       1.0  T
   3   -280.1430476 -0.554528E-02  0.144E-01    0.76       1.0  T
   4   -280.1411923  0.185526E-02  0.111E-01    0.76       1.0  T
   5   -280.1440733 -0.288095E-02  0.412E-02    0.76       1.0  T
   6   -280.1440390  0.343390E-04  0.382E-02    0.76       1.0  T
   7   -280.1444786 -0.439636E-03  0.129E-02    0.76       1.0  T
   8   -280.1445173 -0.387394E-04  0.569E-03    0.76       1.3  T
   9   -280.1445236 -0.628586E-05  0.180E-03    0.76       4.0  T
  10   -280.1445241 -0.455817E-06  0.856E-04    0.76       8.5  T
  11   -280.1445242 -0.986794E-07  0.377E-04    0.76      19.4  T
     SCC iter.                  ...        0 min,  1.900 sec
     gradient                   ...        0 min,  0.504 sec
 * total energy  :  -274.4933684 Eh     change       -0.7071415E+00 Eh
   gradient norm :     0.7723120 Eh/α   predicted    -0.6831866E+00 (  -3.39%)
   displ. norm   :     0.7257532 α      lambda       -0.4939179E+00
   maximum displ.:     0.1551211 α      in ANC's #348, #327, #551, ...

........................................................................
.............................. CYCLE    3 ..............................
........................................................................

 iter      E             dE          RMSdq      gap      omega  full diag
   1   -280.5530158 -0.280553E+03  0.294E-01    0.89       0.0  T
   2   -280.5540905 -0.107466E-02  0.200E-01    0.89       1.0  T
   3   -280.5519665  0.212398E-02  0.134E-01    0.89       1.0  T
   4   -280.5550011 -0.303457E-02  0.596E-02    0.89       1.0  T
   5   -280.5554853 -0.484200E-03  0.305E-02    0.89       1.0  T
   6   -280.5555686 -0.832763E-04  0.212E-02    0.89       1.0  T
   7   -280.5556987 -0.130121E-03  0.610E-03    0.89       1.2  T
   8   -280.5557072 -0.847422E-05  0.212E-03    0.89       3.4  T
   9   -280.5557078 -0.681793E-06  0.950E-04    0.89       7.7  T
  10   -280.5557079 -0.544260E-07  0.528E-04    0.89      13.8  T
     SCC iter.                  ...        0 min,  1.910 sec
     gradient                   ...        0 min,  0.524 sec
 * total energy  :  -274.8987048 Eh     change       -0.4053364E+00 Eh
   gradient norm :     0.4537789 Eh/α   predicted    -0.3770575E+00 (  -6.98%)
   displ. norm   :     0.7701021 α      lambda       -0.3212306E+00
   maximum displ.:     0.1469717 α      in ANC's #348, #209, #327, ...

........................................................................
.............................. CYCLE    4 ..............................
........................................................................

 iter      E             dE          RMSdq      gap      omega  full diag
   1   -280.8767665 -0.280877E+03  0.283E-01    0.99       0.0  T
   2   -280.8777461 -0.979669E-03  0.175E-01    0.99       1.0  T
   3   -280.8765275  0.121863E-02  0.826E-02    0.99       1.0  T
   4   -280.8778098 -0.128231E-02  0.404E-02    0.99       1.0  T
   5   -280.8780761 -0.266310E-03  0.170E-02    0.99       1.0  T
   6   -280.8781010 -0.248103E-04  0.109E-02    0.99       1.0  T
   7   -280.8781321 -0.311465E-04  0.425E-03    0.99       1.7  T
   8   -280.8781367 -0.463644E-05  0.106E-03    0.99       6.9  T
   9   -280.8781368 -0.854300E-07  0.566E-04    0.99      12.9  T
  10   -280.8781369 -0.364468E-07  0.220E-04    0.99      33.2  T
     SCC iter.                  ...        0 min,  1.028 sec
     gradient                   ...        0 min,  0.522 sec
 * total energy  :  -275.1582989 Eh     change       -0.2595941E+00 Eh
   gradient norm :     0.2666429 Eh/α   predicted    -0.2558695E+00 (  -1.43%)
   displ. norm   :     0.7883829 α      lambda       -0.1962999E+00
   maximum displ.:     0.1570406 α      in ANC's #209, #269, #348, ...

........................................................................
.............................. CYCLE    5 ..............................
........................................................................

 iter      E             dE          RMSdq      gap      omega  full diag
   1   -281.0796101 -0.281080E+03  0.253E-01    1.04       0.0  T
   2   -281.0801329 -0.522879E-03  0.149E-01    1.04       1.0  T
   3   -281.0794904  0.642528E-03  0.632E-02    1.04       1.0  T
   4   -281.0802516 -0.761215E-03  0.189E-02    1.04       1.0  T
   5   -281.0803066 -0.549215E-04  0.110E-02    1.04       1.0  T
   6   -281.0803237 -0.171214E-04  0.386E-03    1.04       1.9  T
   7   -281.0803239 -0.179125E-06  0.270E-03    1.04       2.7  T
   8   -281.0803260 -0.216055E-05  0.833E-04    1.04       8.8  T
   9   -281.0803261 -0.744295E-07  0.415E-04    1.04      17.6  T
  10   -281.0803261 -0.211176E-07  0.157E-04    1.04      46.6  T
     SCC iter.                  ...        0 min,  1.056 sec
     gradient                   ...        0 min,  0.531 sec
 * total energy  :  -275.3187925 Eh     change       -0.1604936E+00 Eh
   gradient norm :     0.1698103 Eh/α   predicted    -0.1591549E+00 (  -0.83%)
   displ. norm   :     0.8130318 α      lambda       -0.1253115E+00
   maximum displ.:     0.1604442 α      in ANC's #31, #84, #29, ...

........................................................................
.............................. CYCLE    6 ..............................
........................................................................

 iter      E             dE          RMSdq      gap      omega  full diag
   1   -281.1798672 -0.281180E+03  0.222E-01    1.07       0.0  T
   2   -281.1801934 -0.326228E-03  0.132E-01    1.07       1.0  T
   3   -281.1793797  0.813737E-03  0.630E-02    1.07       1.0  T
   4   -281.1803237 -0.944020E-03  0.161E-02    1.07       1.0  T
   5   -281.1803664 -0.427222E-04  0.821E-03    1.07       1.0  T
   6   -281.1803744 -0.796775E-05  0.280E-03    1.07       2.6  T
   7   -281.1803744 -0.469828E-08  0.194E-03    1.07       3.8  T
   8   -281.1803754 -0.102842E-05  0.669E-04    1.07      10.9  T
   9   -281.1803755 -0.575515E-07  0.345E-04    1.07      21.2  T
  10   -281.1803755 -0.144871E-07  0.126E-04    1.07      57.7  T
     SCC iter.                  ...        0 min,  1.018 sec
     gradient                   ...        0 min,  0.522 sec
 * total energy  :  -275.4253597 Eh     change       -0.1065672E+00 Eh
   gradient norm :     0.1199733 Eh/α   predicted    -0.1040747E+00 (  -2.34%)
   displ. norm   :     0.8497335 α      lambda       -0.9236141E-01
   maximum displ.:     0.1965412 α      in ANC's #31, #29, #28, ...

........................................................................
.............................. CYCLE    7 ..............................
........................................................................

 iter      E             dE          RMSdq      gap      omega  full diag
   1   -281.2104794 -0.281210E+03  0.190E-01    1.08       0.0  T
   2   -281.2106784 -0.198950E-03  0.113E-01    1.08       1.0  T
   3   -281.2101583  0.520134E-03  0.476E-02    1.08       1.0  T
   4   -281.2107437 -0.585412E-03  0.132E-02    1.08       1.0  T
   5   -281.2107750 -0.313455E-04  0.614E-03    1.08       1.2  T
   6   -281.2107793 -0.428274E-05  0.187E-03    1.08       3.9  T
   7   -281.2107794 -0.804933E-07  0.106E-03    1.08       6.9  T
   8   -281.2107796 -0.240356E-06  0.504E-04    1.08      14.5  T
   9   -281.2107797 -0.328624E-07  0.264E-04    1.08      27.6  T
     SCC iter.                  ...        0 min,  0.853 sec
     gradient                   ...        0 min,  0.519 sec
 * total energy  :  -275.5068431 Eh     change       -0.8148340E-01 Eh
   gradient norm :     0.0911864 Eh/α   predicted    -0.7952534E-01 (  -2.40%)
   displ. norm   :     0.8754795 α      lambda       -0.7385892E-01
   maximum displ.:     0.2263753 α      in ANC's #29, #31, #28, ...

........................................................................
.............................. CYCLE    8 ..............................
........................................................................

 iter      E             dE          RMSdq      gap      omega  full diag
   1   -281.2059654 -0.281206E+03  0.161E-01    1.08       0.0  T
   2   -281.2060893 -0.123829E-03  0.963E-02    1.08       1.0  T
   3   -281.2056399  0.449332E-03  0.433E-02    1.08       1.0  T
   4   -281.2061452 -0.505252E-03  0.104E-02    1.08       1.0  T
   5   -281.2061639 -0.186670E-04  0.473E-03    1.08       1.5  T
   6   -281.2061660 -0.217646E-05  0.171E-03    1.08       4.3  T
   7   -281.2061660  0.162592E-07  0.123E-03    1.08       5.9  T
   8   -281.2061664 -0.424830E-06  0.359E-04    1.08      20.3  T
   9   -281.2061665 -0.125539E-07  0.194E-04    1.08      37.5  T
     SCC iter.                  ...        0 min,  0.932 sec
     gradient                   ...        0 min,  0.531 sec
 * total energy  :  -275.5735653 Eh     change       -0.6672217E-01 Eh
   gradient norm :     0.0758329 Eh/α   predicted    -0.6523460E-01 (  -2.23%)
   displ. norm   :     0.8887776 α      lambda       -0.6206777E-01
   maximum displ.:     0.2522413 α      in ANC's #29, #31, #28, ...

........................................................................
.............................. CYCLE    9 ..............................
........................................................................

 iter      E             dE          RMSdq      gap      omega  full diag
   1   -281.1818685 -0.281182E+03  0.143E-01    1.08       0.0  T
   2   -281.1819534 -0.848624E-04  0.854E-02    1.08       1.0  T
   3   -281.1816621  0.291305E-03  0.344E-02    1.08       1.0  T
   4   -281.1819850 -0.322891E-03  0.857E-03    1.08       1.0  T
   5   -281.1819983 -0.132738E-04  0.382E-03    1.08       1.9  T
   6   -281.1819997 -0.144747E-05  0.138E-03    1.08       5.3  T
   7   -281.1819997 -0.659639E-08  0.948E-04    1.08       7.7  T
   8   -281.1820000 -0.246745E-06  0.287E-04    1.08      25.4  T
     SCC iter.                  ...        0 min,  0.818 sec
     gradient                   ...        0 min,  0.528 sec
 * total energy  :  -275.6301952 Eh     change       -0.5662990E-01 Eh
   gradient norm :     0.0650023 Eh/α   predicted    -0.5554840E-01 (  -1.91%)
   displ. norm   :     0.8953651 α      lambda       -0.5290016E-01
   maximum displ.:     0.2748504 α      in ANC's #29, #31, #28, ...

........................................................................
.............................. CYCLE   10 ..............................
........................................................................

 iter      E             dE          RMSdq      gap      omega  full diag
   1   -281.1500122 -0.281150E+03  0.133E-01    1.08       0.0  T
   2   -281.1500749 -0.626651E-04  0.790E-02    1.08       1.0  T
   3   -281.1498522  0.222615E-03  0.302E-02    1.08       1.0  T
   4   -281.1500975 -0.245213E-03  0.730E-03    1.08       1.0  T
   5   -281.1501076 -0.101614E-04  0.323E-03    1.08       2.3  T
   6   -281.1501087 -0.109114E-05  0.111E-03    1.08       6.6  T
   7   -281.1501087 -0.194976E-07  0.644E-04    1.08      11.3  T
   8   -281.1501088 -0.102346E-06  0.253E-04    1.08      28.8  T
     SCC iter.                  ...        0 min,  0.823 sec
     gradient                   ...        0 min,  0.528 sec
 * total energy  :  -275.6784823 Eh     change       -0.4828709E-01 Eh
   gradient norm :     0.0544682 Eh/α   predicted    -0.4765462E-01 (  -1.31%)
   displ. norm   :     0.8953142 α      lambda       -0.4452577E-01
   maximum displ.:     0.2924943 α      in ANC's #29, #31, #28, ...

........................................................................
.............................. CYCLE   11 ..............................
........................................................................

 iter      E             dE          RMSdq      gap      omega  full diag
   1   -281.1148674 -0.281115E+03  0.123E-01    1.08       0.0  T
   2   -281.1149130 -0.456704E-04  0.733E-02    1.08       1.0  T
   3   -281.1148012  0.111820E-03  0.222E-02    1.08       1.0  T
   4   -281.1149238 -0.122538E-03  0.594E-03    1.08       1.2  T
   5   -281.1149305 -0.674438E-05  0.275E-03    1.08       2.7  T
   6   -281.1149314 -0.927331E-06  0.926E-04    1.08       7.9  T
   7   -281.1149315 -0.390946E-07  0.469E-04    1.08      15.6  T
     SCC iter.                  ...        0 min,  0.712 sec
     gradient                   ...        0 min,  0.514 sec
 * total energy  :  -275.7188474 Eh     change       -0.4036511E-01 Eh
   gradient norm :     0.0446029 Eh/α   predicted    -0.4010863E-01 (  -0.64%)
   displ. norm   :     0.8937474 α      lambda       -0.3669341E-01
   maximum displ.:     0.3121507 α      in ANC's #29, #31, #28, ...

........................................................................
.............................. CYCLE   12 ..............................
........................................................................

 iter      E             dE          RMSdq      gap      omega  full diag
   1   -281.0796816 -0.281080E+03  0.114E-01    1.08       0.0  T
   2   -281.0797190 -0.374089E-04  0.677E-02    1.08       1.0  T
   3   -281.0796093  0.109672E-03  0.220E-02    1.08       1.0  T
   4   -281.0797296 -0.120299E-03  0.549E-03    1.08       1.3  T
   5   -281.0797355 -0.591367E-05  0.257E-03    1.08       2.8  T
   6   -281.0797363 -0.771270E-06  0.103E-03    1.08       7.1  T
   7   -281.0797363 -0.251193E-07  0.745E-04    1.08       9.8  T
   8   -281.0797365 -0.149964E-06  0.185E-04    1.08      39.5  T
     SCC iter.                  ...        0 min,  0.799 sec
     gradient                   ...        0 min,  0.524 sec
 * total energy  :  -275.7517455 Eh     change       -0.3289814E-01 Eh
   gradient norm :     0.0376766 Eh/α   predicted    -0.3300176E-01 (   0.31%)
   displ. norm   :     0.8898196 α      lambda       -0.3005501E-01
   maximum displ.:     0.3187583 α      in ANC's #29, #31, #28, ...

........................................................................
.............................. CYCLE   13 ..............................
........................................................................

 iter      E             dE          RMSdq      gap      omega  full diag
   1   -281.0478389 -0.281048E+03  0.105E-01    1.09       0.0  T
   2   -281.0478662 -0.272199E-04  0.621E-02    1.09       1.0  T
   3   -281.0478204  0.458054E-04  0.154E-02    1.09       1.0  T
   4   -281.0478718 -0.514125E-04  0.420E-03    1.09       1.7  T
   5   -281.0478746 -0.284158E-05  0.206E-03    1.09       3.5  T
   6   -281.0478752 -0.564876E-06  0.809E-04    1.09       9.0  T
   7   -281.0478752 -0.530525E-07  0.459E-04    1.09      15.9  T
     SCC iter.                  ...        0 min,  0.714 sec
     gradient                   ...        0 min,  0.483 sec
 * total energy  :  -275.7780240 Eh     change       -0.2627846E-01 Eh
   gradient norm :     0.0358285 Eh/α   predicted    -0.2692597E-01 (   2.46%)
   displ. norm   :     0.8872068 α      lambda       -0.2487208E-01
   maximum displ.:     0.3316948 α      in ANC's #29, #31, #28, ...

........................................................................
.............................. CYCLE   14 ..............................
........................................................................

 iter      E             dE          RMSdq      gap      omega  full diag
   1   -281.0183829 -0.281018E+03  0.995E-02    1.08       0.0  T
   2   -281.0184098 -0.268973E-04  0.590E-02    1.08       1.0  T
   3   -281.0183292  0.806495E-04  0.196E-02    1.08       1.0  T
   4   -281.0184159 -0.867607E-04  0.534E-03    1.08       1.4  T
   5   -281.0184212 -0.529738E-05  0.285E-03    1.08       2.6  T
   6   -281.0184227 -0.142301E-05  0.136E-03    1.08       5.4  T
   7   -281.0184230 -0.334474E-06  0.532E-04    1.08      13.7  T
   8   -281.0184230 -0.486747E-07  0.164E-04    1.08      44.4  T
     SCC iter.                  ...        0 min,  0.825 sec
     gradient                   ...        0 min,  0.531 sec
 * total energy  :  -275.7992527 Eh     change       -0.2122873E-01 Eh
   gradient norm :     0.0307183 Eh/α   predicted    -0.2222488E-01 (   4.69%)
   displ. norm   :     0.8682873 α      lambda       -0.1964348E-01
   maximum displ.:     0.3241032 α      in ANC's #29, #31, #28, ...

........................................................................
.............................. CYCLE   15 ..............................
........................................................................

 iter      E             dE          RMSdq      gap      omega  full diag
   1   -280.9936562 -0.280994E+03  0.861E-02    1.08       0.0  T
   2   -280.9936729 -0.167420E-04  0.509E-02    1.08       1.0  T
   3   -280.9936191  0.538468E-04  0.149E-02    1.08       1.0  T
   4   -280.9936729 -0.538248E-04  0.535E-03    1.08       1.4  T
   5   -280.9936789 -0.601704E-05  0.235E-03    1.08       3.1  T
   6   -280.9936799 -0.100840E-05  0.107E-03    1.08       6.8  T
   7   -280.9936801 -0.192880E-06  0.420E-04    1.08      17.4  T
   8   -280.9936802 -0.283978E-07  0.127E-04    1.08      57.5  T
     SCC iter.                  ...        0 min,  0.813 sec
     gradient                   ...        0 min,  0.525 sec
 * total energy  :  -275.8164298 Eh     change       -0.1717708E-01 Eh
   gradient norm :     0.0235647 Eh/α   predicted    -0.1722657E-01 (   0.29%)
   displ. norm   :     0.8711694 α      lambda       -0.1603004E-01
   maximum displ.:     0.3192633 α      in ANC's #29, #31, #28, ...

........................................................................
.............................. CYCLE   16 ..............................
........................................................................

 iter      E             dE          RMSdq      gap      omega  full diag
   1   -280.9789557 -0.280979E+03  0.888E-02    1.07       0.0  T
   2   -280.9789726 -0.168469E-04  0.531E-02    1.08       1.0  T
   3   -280.9788744  0.981805E-04  0.184E-02    1.07       1.0  T
   4   -280.9789719 -0.975156E-04  0.651E-03    1.08       1.1  T
   5   -280.9789811 -0.922948E-05  0.252E-03    1.07       2.9  T
   6   -280.9789821 -0.983091E-06  0.108E-03    1.07       6.8  T
   7   -280.9789823 -0.209593E-06  0.401E-04    1.07      18.2  T
   8   -280.9789824 -0.299169E-07  0.145E-04    1.07      50.5  T
     SCC iter.                  ...        0 min,  0.827 sec
     gradient                   ...        0 min,  0.537 sec
 * total energy  :  -275.8301209 Eh     change       -0.1369114E-01 Eh
   gradient norm :     0.0236186 Eh/α   predicted    -0.1409791E-01 (   2.97%)
   displ. norm   :     0.8693752 α      lambda       -0.1376170E-01
   maximum displ.:     0.3130409 α      in ANC's #29, #31, #26, ...

........................................................................
.............................. CYCLE   17 ..............................
........................................................................

 iter      E             dE          RMSdq      gap      omega  full diag
   1   -280.9571863 -0.280957E+03  0.889E-02    1.07       0.0  T
   2   -280.9572021 -0.158696E-04  0.547E-02    1.07       1.0  T
   3   -280.9569400  0.262151E-03  0.298E-02    1.07       1.0  T
   4   -280.9572164 -0.276435E-03  0.762E-03    1.07       1.0  T
   5   -280.9572286 -0.121977E-04  0.275E-03    1.07       2.6  T
   6   -280.9572298 -0.117296E-05  0.137E-03    1.07       5.3  T
   7   -280.9572302 -0.354641E-06  0.440E-04    1.07      16.6  T
   8   -280.9572302 -0.248744E-07  0.166E-04    1.07      43.8  T
     SCC iter.                  ...        0 min,  0.816 sec
     gradient                   ...        0 min,  0.499 sec
 * total energy  :  -275.8412965 Eh     change       -0.1117559E-01 Eh
   gradient norm :     0.0205427 Eh/α   predicted    -0.1208149E-01 (   8.11%)
   displ. norm   :     0.8290275 α      lambda       -0.1038980E-01
   maximum displ.:     0.2817132 α      in ANC's #29, #26, #31, ...

........................................................................
.............................. CYCLE   18 ..............................
........................................................................

 iter      E             dE          RMSdq      gap      omega  full diag
   1   -280.9467525 -0.280947E+03  0.838E-02    1.06       0.0  T
   2   -280.9467661 -0.136091E-04  0.499E-02    1.06       1.0  T
   3   -280.9466665  0.996099E-04  0.188E-02    1.06       1.0  T
   4   -280.9467652 -0.987766E-04  0.632E-03    1.06       1.2  T
   5   -280.9467744 -0.915873E-05  0.220E-03    1.06       3.3  T
   6   -280.9467751 -0.727665E-06  0.988E-04    1.06       7.4  T
   7   -280.9467753 -0.160571E-06  0.388E-04    1.06      18.8  T
     SCC iter.                  ...        0 min,  0.727 sec
     gradient                   ...        0 min,  0.526 sec
 * total energy  :  -275.8498838 Eh     change       -0.8587289E-02 Eh
   gradient norm :     0.0181138 Eh/α   predicted    -0.8765287E-02 (   2.07%)
   displ. norm   :     0.8185028 α      lambda       -0.8190732E-02
   maximum displ.:     0.2669619 α      in ANC's #26, #29, #22, ...

........................................................................
.............................. CYCLE   19 ..............................
........................................................................

 iter      E             dE          RMSdq      gap      omega  full diag
   1   -280.9357096 -0.280936E+03  0.826E-02    1.06       0.0  T
   2   -280.9357210 -0.113943E-04  0.490E-02    1.06       1.0  T
   3   -280.9356567  0.643297E-04  0.161E-02    1.06       1.0  T
   4   -280.9357231 -0.663730E-04  0.451E-03    1.06       1.6  T
   5   -280.9357269 -0.389510E-05  0.220E-03    1.06       3.3  T
   6   -280.9357279 -0.970065E-06  0.984E-04    1.06       7.4  T
   7   -280.9357281 -0.156053E-06  0.361E-04    1.06      20.2  T
     SCC iter.                  ...        0 min,  0.660 sec
     gradient                   ...        0 min,  0.500 sec
 * total energy  :  -275.8561878 Eh     change       -0.6304001E-02 Eh
   gradient norm :     0.0196718 Eh/α   predicted    -0.6839044E-02 (   8.49%)
   displ. norm   :     0.7738059 α      lambda       -0.6189950E-02
   maximum displ.:     0.2766938 α      in ANC's #22, #26, #25, ...

........................................................................
.............................. CYCLE   20 ..............................
........................................................................

 iter      E             dE          RMSdq      gap      omega  full diag
   1   -280.9260091 -0.280926E+03  0.750E-02    1.06       0.0  T
   2   -280.9260174 -0.830987E-05  0.448E-02    1.06       1.0  T
   3   -280.9259458  0.716265E-04  0.163E-02    1.06       1.0  T
   4   -280.9260210 -0.752628E-04  0.391E-03    1.06       1.9  T
   5   -280.9260238 -0.277743E-05  0.204E-03    1.06       3.6  T
   6   -280.9260247 -0.842996E-06  0.897E-04    1.06       8.1  T
   7   -280.9260248 -0.124555E-06  0.338E-04    1.06      21.6  T
     SCC iter.                  ...        0 min,  0.694 sec
     gradient                   ...        0 min,  0.525 sec
 * total energy  :  -275.8609855 Eh     change       -0.4797668E-02 Eh
   gradient norm :     0.0128333 Eh/α   predicted    -0.4948177E-02 (   3.14%)
   displ. norm   :     0.7397397 α      lambda       -0.4243453E-02
   maximum displ.:     0.2473910 α      in ANC's #22, #26, #25, ...
 * RMSD in coord.:     0.9883360 α      energy gain  -0.2074759E+01 Eh

generating ANC from model Hessian ...
Using Lindh-Hessian (1995)
 Shifting diagonal of input Hessian by    1.2522495578650400E-002
 Lowest  eigenvalues of input Hessian
    0.010000    0.010057    0.011089    0.011498    0.012230    0.012321
    0.000000    0.000000    0.000000    0.000000    0.000000    0.000000
    0.012530    0.012561    0.012610    0.012616    0.012653    0.012679
 Highest eigenvalues
    2.096878    2.114548    2.158570    2.162933    2.168256    2.174986


........................................................................
.............................. CYCLE   21 ..............................
........................................................................

 iter      E             dE          RMSdq      gap      omega  full diag
   1   -280.9192224 -0.280919E+03  0.673E-02    1.06       0.0  T
   2   -280.9192293 -0.688086E-05  0.405E-02    1.06       1.0  T
   3   -280.9191447  0.845749E-04  0.174E-02    1.06       1.0  T
   4   -280.9192368 -0.920407E-04  0.282E-03    1.06       2.6  T
   5   -280.9192383 -0.153404E-05  0.136E-03    1.06       5.4  T
   6   -280.9192385 -0.200469E-06  0.827E-04    1.06       8.8  T
   7   -280.9192386 -0.126210E-06  0.338E-04    1.06      21.6  T
     SCC iter.                  ...        0 min,  1.853 sec
     gradient                   ...        0 min,  0.514 sec
 * total energy  :  -275.8643139 Eh     change       -0.3328386E-02 Eh
   gradient norm :     0.0150564 Eh/α   predicted     0.0000000E+00 (-100.00%)
   displ. norm   :     0.3310422 α      lambda       -0.2126360E-02
   maximum displ.:     0.1111214 α      in ANC's #6, #23, #13, ...

........................................................................
.............................. CYCLE   22 ..............................
........................................................................

 iter      E             dE          RMSdq      gap      omega  full diag
   1   -280.9259203 -0.280926E+03  0.295E-02    1.06       0.0  T
   2   -280.9259235 -0.326697E-05  0.177E-02    1.06       1.0  T
   3   -280.9259168  0.671974E-05  0.588E-03    1.06       1.2  T
   4   -280.9259245 -0.765726E-05  0.151E-03    1.06       4.8  T
   5   -280.9259248 -0.330940E-06  0.732E-04    1.06      10.0  T
   6   -280.9259249 -0.597814E-07  0.381E-04    1.06      19.1  T
     SCC iter.                  ...        0 min,  1.302 sec
     gradient                   ...        0 min,  0.508 sec
 * total energy  :  -275.8660705 Eh     change       -0.1756690E-02 Eh
   gradient norm :     0.0068206 Eh/α   predicted    -0.1179697E-02 ( -32.85%)
   displ. norm   :     0.6978344 α      lambda       -0.3313233E-02
   maximum displ.:     0.2613720 α      in ANC's #13, #23, #19, ...

........................................................................
.............................. CYCLE   23 ..............................
........................................................................

 iter      E             dE          RMSdq      gap      omega  full diag
   1   -280.9323347 -0.280932E+03  0.534E-02    1.06       0.0  T
   2   -280.9323400 -0.531759E-05  0.320E-02    1.06       1.0  T
   3   -280.9323052  0.347869E-04  0.125E-02    1.06       1.0  T
   4   -280.9323434 -0.382641E-04  0.210E-03    1.06       3.5  T
   5   -280.9323443 -0.804354E-06  0.103E-03    1.06       7.1  T
   6   -280.9323444 -0.117070E-06  0.576E-04    1.06      12.7  T
   7   -280.9323444 -0.409896E-07  0.323E-04    1.06      22.6  T
     SCC iter.                  ...        0 min,  0.697 sec
     gradient                   ...        0 min,  0.509 sec
 * total energy  :  -275.8687453 Eh     change       -0.2674729E-02 Eh
   gradient norm :     0.0114525 Eh/α   predicted    -0.2463344E-02 (  -7.90%)
   displ. norm   :     0.7810816 α      lambda       -0.3043926E-02
   maximum displ.:     0.3004208 α      in ANC's #13, #23, #19, ...

........................................................................
.............................. CYCLE   24 ..............................
........................................................................

 iter      E             dE          RMSdq      gap      omega  full diag
   1   -280.9345425 -0.280935E+03  0.571E-02    1.06       0.0  T
   2   -280.9345475 -0.498123E-05  0.337E-02    1.06       1.0  T
   3   -280.9345212  0.263313E-04  0.995E-03    1.06       1.0  T
   4   -280.9345492 -0.280410E-04  0.252E-03    1.06       2.9  T
   5   -280.9345500 -0.818755E-06  0.157E-03    1.06       4.6  T
   6   -280.9345505 -0.500648E-06  0.621E-04    1.06      11.7  T
   7   -280.9345506 -0.664245E-07  0.241E-04    1.06      30.3  T
     SCC iter.                  ...        0 min,  0.719 sec
     gradient                   ...        0 min,  0.518 sec
 * total energy  :  -275.8712871 Eh     change       -0.2541859E-02 Eh
   gradient norm :     0.0153915 Eh/α   predicted    -0.2450503E-02 (  -3.59%)
   displ. norm   :     0.7978383 α      lambda       -0.2915715E-02
   maximum displ.:     0.3524343 α      in ANC's #13, #23, #19, ...

........................................................................
.............................. CYCLE   25 ..............................
........................................................................

 iter      E             dE          RMSdq      gap      omega  full diag
   1   -280.9347740 -0.280935E+03  0.510E-02    1.07       0.0  T
   2   -280.9347776 -0.362650E-05  0.305E-02    1.07       1.0  T
   3   -280.9347391  0.385657E-04  0.120E-02    1.07       1.0  T
   4   -280.9347802 -0.411087E-04  0.237E-03    1.07       3.1  T
   5   -280.9347811 -0.878137E-06  0.139E-03    1.07       5.2  T
   6   -280.9347815 -0.382864E-06  0.572E-04    1.07      12.8  T
   7   -280.9347815 -0.387383E-07  0.254E-04    1.07      28.7  T
     SCC iter.                  ...        0 min,  0.591 sec
     gradient                   ...        0 min,  0.484 sec
 * total energy  :  -275.8738434 Eh     change       -0.2556249E-02 Eh
   gradient norm :     0.0135929 Eh/α   predicted    -0.2385851E-02 (  -6.67%)
   displ. norm   :     0.7947964 α      lambda       -0.2909703E-02
   maximum displ.:     0.3606372 α      in ANC's #13, #23, #19, ...

........................................................................
.............................. CYCLE   26 ..............................
........................................................................

 iter      E             dE          RMSdq      gap      omega  full diag
   1   -280.9361068 -0.280936E+03  0.515E-02    1.07       0.0  T
   2   -280.9361107 -0.393996E-05  0.307E-02    1.07       1.0  T
   3   -280.9360887  0.220273E-04  0.905E-03    1.07       1.0  T
   4   -280.9361114 -0.227765E-04  0.264E-03    1.07       2.8  T
   5   -280.9361129 -0.148052E-05  0.120E-03    1.07       6.1  T
   6   -280.9361131 -0.221961E-06  0.582E-04    1.07      12.5  T
   7   -280.9361132 -0.459160E-07  0.250E-04    1.07      29.1  T
     SCC iter.                  ...        0 min,  0.713 sec
     gradient                   ...        0 min,  0.513 sec
 * total energy  :  -275.8763559 Eh     change       -0.2512536E-02 Eh
   gradient norm :     0.0100188 Eh/α   predicted    -0.2373887E-02 (  -5.52%)
   displ. norm   :     0.8155146 α      lambda       -0.2799988E-02
   maximum displ.:     0.3902506 α      in ANC's #13, #19, #14, ...

........................................................................
.............................. CYCLE   27 ..............................
........................................................................

 iter      E             dE          RMSdq      gap      omega  full diag
   1   -280.9373385 -0.280937E+03  0.514E-02    1.07       0.0  T
   2   -280.9373424 -0.390593E-05  0.307E-02    1.07       1.0  T
   3   -280.9372938  0.485529E-04  0.131E-02    1.07       1.0  T
   4   -280.9373431 -0.492945E-04  0.355E-03    1.07       2.1  T
   5   -280.9373461 -0.294569E-05  0.133E-03    1.07       5.5  T
   6   -280.9373464 -0.306214E-06  0.531E-04    1.07      13.7  T
   7   -280.9373464 -0.260350E-07  0.263E-04    1.07      27.7  T
     SCC iter.                  ...        0 min,  2.766 sec
     gradient                   ...        0 min,  0.532 sec
 * total energy  :  -275.8787963 Eh     change       -0.2440335E-02 Eh
   gradient norm :     0.0139495 Eh/α   predicted    -0.2331081E-02 (  -4.48%)
   displ. norm   :     0.8357204 α      lambda       -0.2841134E-02
   maximum displ.:     0.3822944 α      in ANC's #13, #19, #14, ...

........................................................................
.............................. CYCLE   28 ..............................
........................................................................

 iter      E             dE          RMSdq      gap      omega  full diag
   1   -280.9359414 -0.280936E+03  0.491E-02    1.07       0.0  T
   2   -280.9359457 -0.431568E-05  0.291E-02    1.07       1.0  T
   3   -280.9359369  0.881965E-05  0.594E-03    1.07       1.2  T
   4   -280.9359449 -0.797167E-05  0.281E-03    1.07       2.6  T
   5   -280.9359468 -0.188863E-05  0.111E-03    1.07       6.6  T
   6   -280.9359470 -0.201418E-06  0.505E-04    1.07      14.5  T
   7   -280.9359470 -0.251255E-07  0.234E-04    1.07      31.2  T
     SCC iter.                  ...        0 min,  0.737 sec
     gradient                   ...        0 min,  0.534 sec
 * total energy  :  -275.8814397 Eh     change       -0.2643431E-02 Eh
   gradient norm :     0.0157960 Eh/α   predicted    -0.2412736E-02 (  -8.73%)
   displ. norm   :     0.8395569 α      lambda       -0.3209691E-02
   maximum displ.:     0.3525502 α      in ANC's #13, #4, #14, ...

........................................................................
.............................. CYCLE   29 ..............................
........................................................................

 iter      E             dE          RMSdq      gap      omega  full diag
   1   -280.9406423 -0.280941E+03  0.512E-02    1.07       0.0  T
   2   -280.9406473 -0.501763E-05  0.303E-02    1.07       1.0  T
   3   -280.9406425  0.483282E-05  0.483E-03    1.07       1.5  T
   4   -280.9406471 -0.458169E-05  0.223E-03    1.07       3.3  T
   5   -280.9406482 -0.114511E-05  0.979E-04    1.07       7.5  T
   6   -280.9406484 -0.120254E-06  0.544E-04    1.07      13.4  T
   7   -280.9406484 -0.330263E-07  0.234E-04    1.07      31.2  T
     SCC iter.                  ...        0 min,  0.731 sec
     gradient                   ...        0 min,  0.530 sec
 * total energy  :  -275.8843253 Eh     change       -0.2885658E-02 Eh
   gradient norm :     0.0141452 Eh/α   predicted    -0.2736044E-02 (  -5.18%)
   displ. norm   :     0.8680635 α      lambda       -0.3176831E-02
   maximum displ.:     0.3544847 α      in ANC's #13, #4, #14, ...

........................................................................
.............................. CYCLE   30 ..............................
........................................................................

 iter      E             dE          RMSdq      gap      omega  full diag
   1   -280.9354852 -0.280935E+03  0.519E-02    1.07       0.0  T
   2   -280.9354901 -0.490123E-05  0.309E-02    1.07       1.0  T
   3   -280.9354773  0.128180E-04  0.702E-03    1.07       1.0  T
   4   -280.9354903 -0.129725E-04  0.258E-03    1.07       2.8  T
   5   -280.9354916 -0.135314E-05  0.127E-03    1.07       5.8  T
   6   -280.9354919 -0.236765E-06  0.640E-04    1.07      11.4  T
   7   -280.9354919 -0.493750E-07  0.285E-04    1.07      25.6  T
     SCC iter.                  ...        0 min,  0.669 sec
     gradient                   ...        0 min,  0.501 sec
 * total energy  :  -275.8871217 Eh     change       -0.2796363E-02 Eh
   gradient norm :     0.0133789 Eh/α   predicted    -0.2785343E-02 (  -0.39%)
   displ. norm   :     0.8367802 α      lambda       -0.3198904E-02
   maximum displ.:     0.3395552 α      in ANC's #11, #17, #4, ...

........................................................................
.............................. CYCLE   31 ..............................
........................................................................

 iter      E             dE          RMSdq      gap      omega  full diag
   1   -280.9508823 -0.280951E+03  0.530E-02    1.07       0.0  T
   2   -280.9508881 -0.575933E-05  0.315E-02    1.07       1.0  T
   3   -280.9508746  0.134912E-04  0.712E-03    1.07       1.0  T
   4   -280.9508879 -0.132747E-04  0.275E-03    1.07       2.7  T
   5   -280.9508897 -0.183994E-05  0.117E-03    1.07       6.2  T
   6   -280.9508899 -0.206739E-06  0.595E-04    1.07      12.3  T
   7   -280.9508899 -0.283779E-07  0.290E-04    1.07      25.1  T
     SCC iter.                  ...        0 min,  0.724 sec
     gradient                   ...        0 min,  0.520 sec
 * total energy  :  -275.8898187 Eh     change       -0.2697023E-02 Eh
   gradient norm :     0.0157983 Eh/α   predicted    -0.2719397E-02 (   0.83%)
   displ. norm   :     0.8911897 α      lambda       -0.3016788E-02
   maximum displ.:     0.3355237 α      in ANC's #13, #11, #4, ...

........................................................................
.............................. CYCLE   32 ..............................
........................................................................

 iter      E             dE          RMSdq      gap      omega  full diag
   1   -280.9467423 -0.280947E+03  0.518E-02    1.07       0.0  T
   2   -280.9467486 -0.637208E-05  0.310E-02    1.07       1.0  T
   3   -280.9467249  0.236883E-04  0.907E-03    1.07       1.0  T
   4   -280.9467491 -0.241981E-04  0.294E-03    1.07       2.5  T
   5   -280.9467511 -0.193950E-05  0.125E-03    1.07       5.8  T
   6   -280.9467513 -0.250025E-06  0.630E-04    1.07      11.6  T
   7   -280.9467514 -0.428865E-07  0.310E-04    1.07      23.6  T
     SCC iter.                  ...        0 min,  1.143 sec
     gradient                   ...        0 min,  0.521 sec
 * total energy  :  -275.8925212 Eh     change       -0.2702502E-02 Eh
   gradient norm :     0.0122614 Eh/α   predicted    -0.2706390E-02 (   0.14%)
   displ. norm   :     0.8254532 α      lambda       -0.3059071E-02
   maximum displ.:     0.3543795 α      in ANC's #11, #17, #4, ...

........................................................................
.............................. CYCLE   33 ..............................
........................................................................

 iter      E             dE          RMSdq      gap      omega  full diag
   1   -280.9602738 -0.280960E+03  0.515E-02    1.07       0.0  T
   2   -280.9602789 -0.508291E-05  0.314E-02    1.07       1.0  T
   3   -280.9602322  0.466821E-04  0.126E-02    1.07       1.0  T
   4   -280.9602831 -0.509245E-04  0.230E-03    1.07       3.2  T
   5   -280.9602842 -0.104967E-05  0.987E-04    1.07       7.4  T
   6   -280.9602842 -0.369062E-07  0.607E-04    1.07      12.0  T
   7   -280.9602842 -0.243667E-07  0.396E-04    1.07      18.4  T
     SCC iter.                  ...        0 min,  1.420 sec
     gradient                   ...        0 min,  0.504 sec
 * total energy  :  -275.8950188 Eh     change       -0.2497541E-02 Eh
   gradient norm :     0.0123193 Eh/α   predicted    -0.2571721E-02 (   2.97%)
   displ. norm   :     0.8658467 α      lambda       -0.2755640E-02
   maximum displ.:     0.3694588 α      in ANC's #11, #4, #17, ...

........................................................................
.............................. CYCLE   34 ..............................
........................................................................

 iter      E             dE          RMSdq      gap      omega  full diag
   1   -280.9612825 -0.280961E+03  0.492E-02    1.07       0.0  T
   2   -280.9612912 -0.868068E-05  0.291E-02    1.07       1.0  T
   3   -280.9612762  0.149709E-04  0.748E-03    1.07       1.0  T
   4   -280.9612908 -0.145795E-04  0.304E-03    1.07       2.4  T
   5   -280.9612933 -0.247875E-05  0.812E-04    1.07       9.0  T
   6   -280.9612933  0.309274E-08  0.604E-04    1.07      12.1  T
   7   -280.9612933 -0.375167E-07  0.327E-04    1.07      22.3  T
     SCC iter.                  ...        0 min,  0.727 sec
     gradient                   ...        0 min,  0.531 sec
 * total energy  :  -275.8973991 Eh     change       -0.2380372E-02 Eh
   gradient norm :     0.0133305 Eh/α   predicted    -0.2410764E-02 (   1.28%)
   displ. norm   :     0.8443081 α      lambda       -0.2667994E-02
   maximum displ.:     0.3782258 α      in ANC's #11, #17, #4, ...

........................................................................
.............................. CYCLE   35 ..............................
........................................................................

 iter      E             dE          RMSdq      gap      omega  full diag
   1   -280.9688368 -0.280969E+03  0.456E-02    1.07       0.0  T
   2   -280.9688411 -0.430451E-05  0.269E-02    1.07       1.0  T
   3   -280.9688280  0.131861E-04  0.686E-03    1.07       1.1  T
   4   -280.9688417 -0.137693E-04  0.214E-03    1.07       3.4  T
   5   -280.9688428 -0.108228E-05  0.762E-04    1.07       9.6  T
   6   -280.9688428 -0.375599E-08  0.581E-04    1.07      12.5  T
   7   -280.9688429 -0.506242E-07  0.245E-04    1.07      29.7  T
     SCC iter.                  ...        0 min,  0.731 sec
     gradient                   ...        0 min,  0.521 sec
 * total energy  :  -275.8997779 Eh     change       -0.2378719E-02 Eh
   gradient norm :     0.0096397 Eh/α   predicted    -0.2284950E-02 (  -3.94%)
   displ. norm   :     0.8477608 α      lambda       -0.2760348E-02
   maximum displ.:     0.3728108 α      in ANC's #11, #4, #17, ...

........................................................................
.............................. CYCLE   36 ..............................
........................................................................

 iter      E             dE          RMSdq      gap      omega  full diag
   1   -280.9816516 -0.280982E+03  0.495E-02    1.08       0.0  T
   2   -280.9816549 -0.334820E-05  0.292E-02    1.08       1.0  T
   3   -280.9816443  0.106657E-04  0.648E-03    1.08       1.1  T
   4   -280.9816559 -0.116356E-04  0.177E-03    1.08       4.1  T
   5   -280.9816565 -0.579933E-06  0.800E-04    1.08       9.1  T
   6   -280.9816565 -0.461529E-08  0.540E-04    1.08      13.5  T
     SCC iter.                  ...        0 min,  0.627 sec
     gradient                   ...        0 min,  0.521 sec
 * total energy  :  -275.9021668 Eh     change       -0.2388978E-02 Eh
   gradient norm :     0.0140497 Eh/α   predicted    -0.2372108E-02 (  -0.71%)
   displ. norm   :     0.8789893 α      lambda       -0.2607698E-02
   maximum displ.:     0.3777194 α      in ANC's #11, #4, #14, ...

........................................................................
.............................. CYCLE   37 ..............................
........................................................................

 iter      E             dE          RMSdq      gap      omega  full diag
   1   -280.9820514 -0.280982E+03  0.478E-02    1.08       0.0  T
   2   -280.9820545 -0.306151E-05  0.282E-02    1.08       1.0  T
   3   -280.9820414  0.130659E-04  0.681E-03    1.08       1.1  T
   4   -280.9820548 -0.133328E-04  0.215E-03    1.08       3.4  T
   5   -280.9820558 -0.985876E-06  0.996E-04    1.08       7.3  T
   6   -280.9820559 -0.173181E-06  0.447E-04    1.08      16.3  T
     SCC iter.                  ...        0 min,  0.879 sec
     gradient                   ...        0 min,  0.452 sec
 * total energy  :  -275.9045880 Eh     change       -0.2421188E-02 Eh
   gradient norm :     0.0117636 Eh/α   predicted    -0.2311236E-02 (  -4.54%)
   displ. norm   :     0.8727089 α      lambda       -0.2837821E-02
   maximum displ.:     0.3611369 α      in ANC's #11, #4, #14, ...

........................................................................
.............................. CYCLE   38 ..............................
........................................................................

 iter      E             dE          RMSdq      gap      omega  full diag
   1   -280.9842856 -0.280984E+03  0.587E-02    1.08       0.0  T
   2   -280.9842906 -0.495175E-05  0.344E-02    1.08       1.0  T
   3   -280.9842863  0.425768E-05  0.455E-03    1.08       1.6  T
   4   -280.9842897 -0.341456E-05  0.266E-03    1.08       2.7  T
   5   -280.9842915 -0.177330E-05  0.927E-04    1.08       7.9  T
   6   -280.9842916 -0.903914E-07  0.525E-04    1.08      13.9  T
   7   -280.9842916 -0.394326E-07  0.183E-04    1.08      40.0  T
     SCC iter.                  ...        0 min,  0.696 sec
     gradient                   ...        0 min,  0.477 sec
 * total energy  :  -275.9071328 Eh     change       -0.2544758E-02 Eh
   gradient norm :     0.0132631 Eh/α   predicted    -0.2499584E-02 (  -1.78%)
   displ. norm   :     0.8736894 α      lambda       -0.2846587E-02
   maximum displ.:     0.3488625 α      in ANC's #11, #14, #4, ...

........................................................................
.............................. CYCLE   39 ..............................
........................................................................

 iter      E             dE          RMSdq      gap      omega  full diag
   1   -280.9777688 -0.280978E+03  0.597E-02    1.08       0.0  T
   2   -280.9777750 -0.620618E-05  0.350E-02    1.08       1.0  T
   3   -280.9777718  0.319402E-05  0.419E-03    1.08       1.7  T
   4   -280.9777749 -0.308365E-05  0.215E-03    1.08       3.4  T
   5   -280.9777761 -0.117198E-05  0.735E-04    1.08       9.9  T
   6   -280.9777760  0.171514E-07  0.533E-04    1.08      13.7  T
   7   -280.9777761 -0.463751E-07  0.221E-04    1.08      33.0  T
     SCC iter.                  ...        0 min,  0.668 sec
     gradient                   ...        0 min,  0.481 sec
 * total energy  :  -275.9096486 Eh     change       -0.2515838E-02 Eh
   gradient norm :     0.0143758 Eh/α   predicted    -0.2509745E-02 (  -0.24%)
   displ. norm   :     0.8546431 α      lambda       -0.2853509E-02
   maximum displ.:     0.3247233 α      in ANC's #11, #4, #14, ...

........................................................................
.............................. CYCLE   40 ..............................
........................................................................

 iter      E             dE          RMSdq      gap      omega  full diag
   1   -280.9713560 -0.280971E+03  0.603E-02    1.08       0.0  T
   2   -280.9713639 -0.788366E-05  0.353E-02    1.08       1.0  T
   3   -280.9713426  0.212217E-04  0.911E-03    1.08       1.0  T
   4   -280.9713602 -0.175309E-04  0.467E-03    1.08       1.6  T
   5   -280.9713660 -0.579737E-05  0.116E-03    1.08       6.3  T
   6   -280.9713661 -0.120169E-06  0.668E-04    1.08      10.9  T
   7   -280.9713661 -0.420510E-07  0.243E-04    1.08      30.0  T
     SCC iter.                  ...        0 min,  0.688 sec
     gradient                   ...        0 min,  0.496 sec
 * total energy  :  -275.9119631 Eh     change       -0.2314519E-02 Eh
   gradient norm :     0.0162223 Eh/α   predicted    -0.2468880E-02 (   6.67%)
   displ. norm   :     0.8183749 α      lambda       -0.2702932E-02
   maximum displ.:     0.3167575 α      in ANC's #11, #4, #14, ...

........................................................................
.............................. CYCLE   41 ..............................
........................................................................

 iter      E             dE          RMSdq      gap      omega  full diag
   1   -280.9760966 -0.280976E+03  0.571E-02    1.08       0.0  T
   2   -280.9761019 -0.522258E-05  0.336E-02    1.08       1.0  T
   3   -280.9760946  0.730537E-05  0.581E-03    1.08       1.3  T
   4   -280.9760999 -0.538062E-05  0.344E-03    1.08       2.1  T
   5   -280.9761030 -0.305167E-05  0.999E-04    1.08       7.3  T
   6   -280.9761031 -0.986398E-07  0.540E-04    1.08      13.5  T
   7   -280.9761031 -0.224992E-07  0.165E-04    1.08      44.1  T
     SCC iter.                  ...        0 min,  0.633 sec
     gradient                   ...        0 min,  0.445 sec
 * total energy  :  -275.9142198 Eh     change       -0.2256677E-02 Eh
   gradient norm :     0.0146226 Eh/α   predicted    -0.2256599E-02 (  -0.00%)
   displ. norm   :     0.8015743 α      lambda       -0.2447109E-02
   maximum displ.:     0.3357444 α      in ANC's #11, #14, #4, ...

........................................................................
.............................. CYCLE   42 ..............................
........................................................................

 iter      E             dE          RMSdq      gap      omega  full diag
   1   -280.9827897 -0.280983E+03  0.520E-02    1.08       0.0  T
   2   -280.9827925 -0.282674E-05  0.305E-02    1.08       1.0  T
   3   -280.9827802  0.123564E-04  0.675E-03    1.08       1.1  T
   4   -280.9827916 -0.114463E-04  0.282E-03    1.08       2.6  T
   5   -280.9827937 -0.205506E-05  0.789E-04    1.08       9.2  T
   6   -280.9827937 -0.515461E-07  0.404E-04    1.08      18.0  T
   7   -280.9827937 -0.574562E-08  0.169E-04    1.08      43.0  T
     SCC iter.                  ...        0 min,  0.724 sec
     gradient                   ...        0 min,  0.507 sec
 * total energy  :  -275.9162680 Eh     change       -0.2048213E-02 Eh
   gradient norm :     0.0104037 Eh/α   predicted    -0.2009718E-02 (  -1.88%)
   displ. norm   :     0.8310989 α      lambda       -0.2255546E-02
   maximum displ.:     0.3011478 α      in ANC's #11, #14, #13, ...
 * RMSD in coord.:     1.0798201 α      energy gain  -0.5528256E-01 Eh

generating ANC from model Hessian ...
Using Lindh-Hessian (1995)
 Shifting diagonal of input Hessian by    1.3231406288294733E-002
 Lowest  eigenvalues of input Hessian
    0.010000    0.010264    0.012912    0.012916    0.000000    0.000000
    0.000000    0.000000    0.000000    0.000000    0.013269    0.013282
    0.013322    0.013421    0.013447    0.013592    0.013631    0.013766
 Highest eigenvalues
    2.111478    2.128666    2.158138    2.165433    2.176790    2.188917


........................................................................
.............................. CYCLE   43 ..............................
........................................................................

 iter      E             dE          RMSdq      gap      omega  full diag
   1   -280.9898030 -0.280990E+03  0.616E-02    1.09       0.0  T
   2   -280.9898055 -0.244013E-05  0.363E-02    1.09       1.0  T
   3   -280.9897896  0.158543E-04  0.800E-03    1.09       1.0  T
   4   -280.9898059 -0.162790E-04  0.223E-03    1.09       3.3  T
   5   -280.9898069 -0.101795E-05  0.972E-04    1.09       7.5  T
   6   -280.9898070 -0.123007E-06  0.442E-04    1.09      16.5  T
   7   -280.9898071 -0.169910E-07  0.184E-04    1.09      39.6  T
     SCC iter.                  ...        0 min,  0.715 sec
     gradient                   ...        0 min,  0.530 sec
 * total energy  :  -275.9181697 Eh     change       -0.1901619E-02 Eh
   gradient norm :     0.0114201 Eh/α   predicted     0.0000000E+00 (-100.00%)
   displ. norm   :     0.2054669 α      lambda       -0.8579817E-03
   maximum displ.:     0.1024426 α      in ANC's #2, #10, #8, ...

........................................................................
.............................. CYCLE   44 ..............................
........................................................................

 iter      E             dE          RMSdq      gap      omega  full diag
   1   -280.9924669 -0.280992E+03  0.283E-02    1.08       0.0  T
   2   -280.9924684 -0.148198E-05  0.168E-02    1.08       1.0  T
   3   -280.9924416  0.267490E-04  0.996E-03    1.08       1.0  T
   4   -280.9924698 -0.282267E-04  0.193E-03    1.08       3.8  T
   5   -280.9924706 -0.712198E-06  0.869E-04    1.08       8.4  T
   6   -280.9924706 -0.922881E-07  0.375E-04    1.08      19.5  T
     SCC iter.                  ...        0 min,  1.832 sec
     gradient                   ...        0 min,  0.503 sec
 * total energy  :  -275.9187220 Eh     change       -0.5523643E-03 Eh
   gradient norm :     0.0057314 Eh/α   predicted    -0.4471029E-03 ( -19.06%)
   displ. norm   :     0.4689806 α      lambda       -0.1517920E-02
   maximum displ.:     0.2063970 α      in ANC's #8, #10, #16, ...

........................................................................
.............................. CYCLE   45 ..............................
........................................................................

 iter      E             dE          RMSdq      gap      omega  full diag
   1   -280.9965033 -0.280997E+03  0.460E-02    1.09       0.0  T
   2   -280.9965068 -0.352279E-05  0.274E-02    1.09       1.0  T
   3   -280.9964646  0.422501E-04  0.122E-02    1.09       1.0  T
   4   -280.9965078 -0.432763E-04  0.316E-03    1.09       2.3  T
   5   -280.9965100 -0.220132E-05  0.119E-03    1.09       6.1  T
   6   -280.9965102 -0.206141E-06  0.560E-04    1.09      13.0  T
   7   -280.9965103 -0.198824E-07  0.252E-04    1.09      28.9  T
     SCC iter.                  ...        0 min,  0.758 sec
     gradient                   ...        0 min,  0.525 sec
 * total energy  :  -275.9197204 Eh     change       -0.9984286E-03 Eh
   gradient norm :     0.0131387 Eh/α   predicted    -0.9258876E-03 (  -7.27%)
   displ. norm   :     0.5037154 α      lambda       -0.1156202E-02
   maximum displ.:     0.2324564 α      in ANC's #8, #10, #16, ...

........................................................................
.............................. CYCLE   46 ..............................
........................................................................

 iter      E             dE          RMSdq      gap      omega  full diag
   1   -280.9970840 -0.280997E+03  0.382E-02    1.09       0.0  T
   2   -280.9970846 -0.609466E-06  0.225E-02    1.09       1.0  T
   3   -280.9970821  0.246770E-05  0.298E-03    1.09       2.4  T
   4   -280.9970849 -0.274848E-05  0.777E-04    1.09       9.4  T
   5   -280.9970849 -0.713903E-07  0.483E-04    1.09      15.1  T
   6   -280.9970850 -0.256281E-07  0.249E-04    1.09      29.3  T
     SCC iter.                  ...        0 min,  0.624 sec
     gradient                   ...        0 min,  0.530 sec
 * total energy  :  -275.9207629 Eh     change       -0.1042458E-02 Eh
   gradient norm :     0.0157755 Eh/α   predicted    -0.7247833E-03 ( -30.47%)
   displ. norm   :     0.7521952 α      lambda       -0.1951223E-02
   maximum displ.:     0.3603004 α      in ANC's #8, #10, #16, ...

........................................................................
.............................. CYCLE   47 ..............................
........................................................................

 iter      E             dE          RMSdq      gap      omega  full diag
   1   -280.9968263 -0.280997E+03  0.555E-02    1.09       0.0  T
   2   -280.9968287 -0.243502E-05  0.327E-02    1.09       1.0  T
   3   -280.9968273  0.145667E-05  0.297E-03    1.09       2.5  T
   4   -280.9968290 -0.177490E-05  0.127E-03    1.09       5.8  T
   5   -280.9968293 -0.281138E-06  0.617E-04    1.09      11.8  T
   6   -280.9968293  0.593514E-08  0.481E-04    1.09      15.2  T
     SCC iter.                  ...        0 min,  0.624 sec
     gradient                   ...        0 min,  0.516 sec
 * total energy  :  -275.9224440 Eh     change       -0.1681080E-02 Eh
   gradient norm :     0.0107276 Eh/α   predicted    -0.1527614E-02 (  -9.13%)
   displ. norm   :     0.7922327 α      lambda       -0.1754920E-02
   maximum displ.:     0.4005594 α      in ANC's #8, #10, #16, ...

........................................................................
.............................. CYCLE   48 ..............................
........................................................................

 iter      E             dE          RMSdq      gap      omega  full diag
   1   -280.9973304 -0.280997E+03  0.577E-02    1.09       0.0  T
   2   -280.9973323 -0.183348E-05  0.340E-02    1.09       1.0  T
   3   -280.9973100  0.222861E-04  0.894E-03    1.09       1.0  T
   4   -280.9973331 -0.230899E-04  0.203E-03    1.09       3.6  T
   5   -280.9973339 -0.828496E-06  0.843E-04    1.09       8.7  T
   6   -280.9973340 -0.804294E-07  0.410E-04    1.09      17.8  T
     SCC iter.                  ...        0 min,  0.624 sec
     gradient                   ...        0 min,  0.522 sec
 * total energy  :  -275.9239153 Eh     change       -0.1471282E-02 Eh
   gradient norm :     0.0085327 Eh/α   predicted    -0.1428187E-02 (  -2.93%)
   displ. norm   :     0.8274327 α      lambda       -0.1722512E-02
   maximum displ.:     0.4186572 α      in ANC's #10, #8, #16, ...

........................................................................
.............................. CYCLE   49 ..............................
........................................................................

 iter      E             dE          RMSdq      gap      omega  full diag
   1   -280.9986590 -0.280999E+03  0.594E-02    1.09       0.0  T
   2   -280.9986610 -0.196001E-05  0.350E-02    1.09       1.0  T
   3   -280.9986292  0.317566E-04  0.108E-02    1.09       1.0  T
   4   -280.9986624 -0.331539E-04  0.225E-03    1.09       3.2  T
   5   -280.9986634 -0.101086E-05  0.962E-04    1.09       7.6  T
   6   -280.9986635 -0.956676E-07  0.424E-04    1.09      17.2  T
   7   -280.9986635 -0.305142E-07  0.161E-04    1.09      45.3  T
     SCC iter.                  ...        0 min,  1.152 sec
     gradient                   ...        0 min,  0.509 sec
 * total energy  :  -275.9252722 Eh     change       -0.1356952E-02 Eh
   gradient norm :     0.0102279 Eh/α   predicted    -0.1450913E-02 (   6.92%)
   displ. norm   :     0.8031095 α      lambda       -0.1504307E-02
   maximum displ.:     0.4258713 α      in ANC's #8, #10, #16, ...

........................................................................
.............................. CYCLE   50 ..............................
........................................................................

 iter      E             dE          RMSdq      gap      omega  full diag
   1   -280.9989730 -0.280999E+03  0.550E-02    1.09       0.0  T
   2   -280.9989740 -0.102766E-05  0.325E-02    1.09       1.0  T
   3   -280.9989630  0.110159E-04  0.633E-03    1.09       1.2  T
   4   -280.9989748 -0.118327E-04  0.122E-03    1.09       6.0  T
   5   -280.9989750 -0.229043E-06  0.686E-04    1.09      10.6  T
   6   -280.9989751 -0.610849E-07  0.330E-04    1.09      22.1  T
     SCC iter.                  ...        0 min,  1.719 sec
     gradient                   ...        0 min,  0.499 sec
 * total energy  :  -275.9266475 Eh     change       -0.1375253E-02 Eh
   gradient norm :     0.0081815 Eh/α   predicted    -0.1237290E-02 ( -10.03%)
   displ. norm   :     0.7980771 α      lambda       -0.1647321E-02
   maximum displ.:     0.4477409 α      in ANC's #8, #10, #16, ...

........................................................................
.............................. CYCLE   51 ..............................
........................................................................

 iter      E             dE          RMSdq      gap      omega  full diag
   1   -281.0136677 -0.281014E+03  0.558E-02    1.09       0.0  T
   2   -281.0136738 -0.612312E-05  0.328E-02    1.09       1.0  T
   3   -281.0136606  0.131880E-04  0.734E-03    1.09       1.0  T
   4   -281.0136733 -0.126498E-04  0.298E-03    1.09       2.4  T
   5   -281.0136753 -0.204797E-05  0.113E-03    1.09       6.5  T
   6   -281.0136755 -0.206026E-06  0.574E-04    1.09      12.7  T
   7   -281.0136755 -0.230394E-07  0.263E-04    1.09      27.8  T
     SCC iter.                  ...        0 min,  0.721 sec
     gradient                   ...        0 min,  0.531 sec
 * total energy  :  -275.9279149 Eh     change       -0.1267385E-02 Eh
   gradient norm :     0.0123078 Eh/α   predicted    -0.1348279E-02 (   6.38%)
   displ. norm   :     0.8515691 α      lambda       -0.1536754E-02
   maximum displ.:     0.4567280 α      in ANC's #8, #10, #16, ...

........................................................................
.............................. CYCLE   52 ..............................
........................................................................

 iter      E             dE          RMSdq      gap      omega  full diag
   1   -281.0060080 -0.281006E+03  0.580E-02    1.10       0.0  T
   2   -281.0060121 -0.409707E-05  0.341E-02    1.10       1.0  T
   3   -281.0060051  0.697061E-05  0.520E-03    1.10       1.4  T
   4   -281.0060122 -0.704604E-05  0.202E-03    1.10       3.6  T
   5   -281.0060132 -0.102335E-05  0.708E-04    1.10      10.3  T
   6   -281.0060132  0.780346E-09  0.543E-04    1.10      13.4  T
   7   -281.0060132 -0.459017E-07  0.200E-04    1.10      36.5  T
     SCC iter.                  ...        0 min,  2.705 sec
     gradient                   ...        0 min,  0.521 sec
 * total energy  :  -275.9292328 Eh     change       -0.1317964E-02 Eh
   gradient norm :     0.0063209 Eh/α   predicted    -0.1325582E-02 (   0.58%)
   displ. norm   :     0.8542372 α      lambda       -0.1328212E-02
   maximum displ.:     0.4754883 α      in ANC's #8, #10, #16, ...

........................................................................
.............................. CYCLE   53 ..............................
........................................................................

 iter      E             dE          RMSdq      gap      omega  full diag
   1   -281.0042675 -0.281004E+03  0.552E-02    1.10       0.0  T
   2   -281.0042686 -0.106667E-05  0.325E-02    1.10       1.0  T
   3   -281.0042641  0.442579E-05  0.410E-03    1.10       1.8  T
   4   -281.0042691 -0.490890E-05  0.103E-03    1.10       7.1  T
   5   -281.0042692 -0.134741E-06  0.638E-04    1.10      11.4  T
   6   -281.0042692 -0.614875E-07  0.298E-04    1.10      24.5  T
     SCC iter.                  ...        0 min,  0.566 sec
     gradient                   ...        0 min,  0.512 sec
 * total energy  :  -275.9304789 Eh     change       -0.1246121E-02 Eh
   gradient norm :     0.0063679 Eh/α   predicted    -0.1148728E-02 (  -7.82%)
   displ. norm   :     0.8305137 α      lambda       -0.1504893E-02
   maximum displ.:     0.4715225 α      in ANC's #8, #10, #7, ...

........................................................................
.............................. CYCLE   54 ..............................
........................................................................

 iter      E             dE          RMSdq      gap      omega  full diag
   1   -281.0141131 -0.281014E+03  0.543E-02    1.10       0.0  T
   2   -281.0141143 -0.118799E-05  0.320E-02    1.10       1.0  T
   3   -281.0141102  0.414126E-05  0.427E-03    1.10       1.7  T
   4   -281.0141146 -0.440775E-05  0.137E-03    1.10       5.3  T
   5   -281.0141150 -0.351002E-06  0.658E-04    1.10      11.1  T
   6   -281.0141150 -0.503687E-07  0.293E-04    1.10      24.9  T
     SCC iter.                  ...        0 min,  1.338 sec
     gradient                   ...        0 min,  0.496 sec
 * total energy  :  -275.9318305 Eh     change       -0.1351563E-02 Eh
   gradient norm :     0.0057720 Eh/α   predicted    -0.1271456E-02 (  -5.93%)
   displ. norm   :     0.8751180 α      lambda       -0.1412475E-02
   maximum displ.:     0.5016263 α      in ANC's #8, #10, #7, ...

........................................................................
.............................. CYCLE   55 ..............................
........................................................................

 iter      E             dE          RMSdq      gap      omega  full diag
   1   -281.0160662 -0.281016E+03  0.559E-02    1.10       0.0  T
   2   -281.0160671 -0.958697E-06  0.329E-02    1.10       1.0  T
   3   -281.0160648  0.236974E-05  0.337E-03    1.10       2.2  T
   4   -281.0160676 -0.288004E-05  0.781E-04    1.10       9.3  T
   5   -281.0160677 -0.520724E-07  0.425E-04    1.10      17.2  T
   6   -281.0160677 -0.105116E-07  0.196E-04    1.10      37.2  T
     SCC iter.                  ...        0 min,  3.272 sec
     gradient                   ...        0 min,  0.532 sec
 * total energy  :  -275.9331615 Eh     change       -0.1331037E-02 Eh
   gradient norm :     0.0065000 Eh/α   predicted    -0.1247103E-02 (  -6.31%)
   displ. norm   :     0.8564923 α      lambda       -0.1450218E-02
   maximum displ.:     0.4879032 α      in ANC's #8, #10, #7, ...

........................................................................
.............................. CYCLE   56 ..............................
........................................................................

 iter      E             dE          RMSdq      gap      omega  full diag
   1   -281.0218131 -0.281022E+03  0.552E-02    1.10       0.0  T
   2   -281.0218145 -0.140078E-05  0.325E-02    1.10       1.0  T
   3   -281.0218113  0.321833E-05  0.390E-03    1.10       1.9  T
   4   -281.0218147 -0.345381E-05  0.130E-03    1.10       5.6  T
   5   -281.0218150 -0.319690E-06  0.646E-04    1.10      11.3  T
   6   -281.0218151 -0.471622E-07  0.357E-04    1.10      20.4  T
[...]
   149   1 H    0.999 --   146 C    0.986
   150   6 C    3.995 --   151 C    0.997   154 H    0.986   153 H    0.984
                           152 H    0.983
   151   6 C    3.990 --   150 C    0.997   159 C    0.993   155 C    0.984
                            75 C    0.982
   152   1 H    0.999 --   150 C    0.983
   153   1 H    0.998 --   150 C    0.984
   154   1 H    0.999 --   150 C    0.986
   155   6 C    3.993 --   158 H    0.986   157 H    0.984   151 C    0.984
                           156 H    0.979
   156   1 H    0.999 --   155 C    0.979
   157   1 H    0.998 --   155 C    0.984
   158   1 H    0.999 --   155 C    0.986
   159   6 C    3.995 --   151 C    0.993   162 H    0.987   160 H    0.984
                           161 H    0.978
   160   1 H    0.998 --   159 C    0.984
   161   1 H    0.999 --   159 C    0.978
   162   1 H    0.999 --   159 C    0.987
   163   6 C    3.996 --   164 C    0.999   165 H    0.985   166 H    0.984
                           167 H    0.976
   164   6 C    3.990 --   163 C    0.999   168 C    0.990   172 C    0.985
                            91 C    0.982
   165   1 H    0.999 --   163 C    0.985
   166   1 H    0.998 --   163 C    0.984
   167   1 H    0.999 --   163 C    0.976
   168   6 C    3.994 --   164 C    0.990   171 H    0.987   170 H    0.985
                           169 H    0.982
   169   1 H    0.999 --   168 C    0.982
   170   1 H    0.998 --   168 C    0.985
   171   1 H    0.999 --   168 C    0.987
   172   6 C    3.994 --   164 C    0.985   175 H    0.985   174 H    0.985
                           173 H    0.984
   173   1 H    0.998 --   172 C    0.984
   174   1 H    0.999 --   172 C    0.985
   175   1 H    0.999 --   172 C    0.985
   176   6 C    3.996 --   177 C    0.999   180 H    0.985   179 H    0.984
                           178 H    0.976
   177   6 C    3.990 --   176 C    0.999   185 C    0.990   181 C    0.985
                           107 C    0.982
   178   1 H    0.999 --   176 C    0.976
   179   1 H    0.998 --   176 C    0.984
   180   1 H    0.999 --   176 C    0.985
   181   6 C    3.994 --   177 C    0.985   184 H    0.985   182 H    0.985
                           183 H    0.984
   182   1 H    0.999 --   181 C    0.985
   183   1 H    0.998 --   181 C    0.984
   184   1 H    0.999 --   181 C    0.985
   185   6 C    3.994 --   177 C    0.990   188 H    0.987   186 H    0.985
                           187 H    0.982
   186   1 H    0.998 --   185 C    0.985
   187   1 H    0.999 --   185 C    0.982
   188   1 H    0.999 --   185 C    0.987
 ---------------------------------------------------------------------------

Topologies differ in total number of bonds
Writing topology from bond orders to xtbtopo.mol

molecular dipole:
                 x           y           z       tot (Debye)
 q only:       -0.076      -0.000       0.106
   full:       -0.081      -0.000       0.070       0.271
molecular quadrupole (traceless):
                xx          xy          yy          xz          yz          zz
 q only:      -17.277       0.048      39.610      -6.909       0.011     -22.334
  q+dip:        4.473       0.040      55.197       5.076       0.008     -59.670
   full:       -8.633       0.040      40.731      -4.597       0.010     -32.098

           -------------------------------------------------
          |                Geometry Summary                 |
           -------------------------------------------------

      molecular mass/u    :     1399.8003275
   center of mass at/Å    :        0.0276137       0.0007354      -0.0238886
  moments of inertia/u·Å² :        0.3044762E+05   0.4253546E+05   0.6917632E+05
rotational constants/cm⁻¹ :        0.5536601E-03   0.3963195E-03   0.2436908E-03

 * 196 selected distances

     #   Z          #   Z                                           value/Å
     1   6 C        2   6 C                                       1.4136927
     2   6 C        3   6 C                                       1.4164658
     3   6 C        4   6 C                                       1.4168706
     1   6 C        6   6 C                                       1.4258273
     5   6 C        6   6 C                                       1.3950894
     6   6 C        7   6 C                                       1.4252302
     7   6 C        8   6 C                                       1.4076091
     8   6 C        9   6 C                                       1.4174538
     9   6 C       10   6 C                                       1.4140473
     4   6 C       11   6 C                                       1.3976273
    11   6 C       12   6 C                                       1.3830107
    12   6 C       13   6 C                                       1.3905871
     3   6 C       14   6 C                                       1.4212474
    13   6 C       14   6 C                                       1.3983881
    11   6 C       15   1 H                                       1.0756627
    13   6 C       16   1 H                                       1.0761070
     2   6 C       17   6 C                                       1.4111337
    17   6 C       18   6 C                                       1.4095989
    18   6 C       19   6 C                                       1.4111323
     1   6 C       20   6 C                                       1.4067886
    19   6 C       20   6 C                                       1.4136934
    19   6 C       22   6 C                                       1.4164687
    21   6 C       22   6 C                                       1.4168701
    20   6 C       23   6 C                                       1.4258289
    23   6 C       24   6 C                                       1.3950895
    25   6 C       26   6 C                                       1.4140405
    26   6 C       27   6 C                                       1.4174527
     7   6 C       28   6 C                                       1.4064432
    23   6 C       28   6 C                                       1.4252199
    27   6 C       28   6 C                                       1.4076168
    22   6 C       29   6 C                                       1.4212480
    29   6 C       30   6 C                                       1.3983984
    30   6 C       31   6 C                                       1.3905999
    21   6 C       32   6 C                                       1.3976174
    31   6 C       32   6 C                                       1.3830001
    30   6 C       33   1 H                                       1.0761024
    32   6 C       34   1 H                                       1.0756653
    18   6 C       36   6 C                                       1.4266432
    35   6 C       36   6 C                                       1.4264090
    17   6 C       37   6 C                                       1.4266368
    35   6 C       38   6 C                                       1.4069144
    37   6 C       38   6 C                                       1.4263980
    38   6 C       39   6 C                                       1.4063011
    39   6 C       40   6 C                                       1.4169068
    40   6 C       41   6 C                                       1.4170054
    37   6 C       42   6 C                                       1.3988484
    36   6 C       43   6 C                                       1.3988596
    44   6 C       45   6 C                                       1.4170255
    35   6 C       46   6 C                                       1.4062991
    45   6 C       46   6 C                                       1.4169072
    39   6 C       47   6 C                                       1.4119381
    40   6 C       48   6 C                                       1.4112627
    47   6 C       50   6 C                                       1.4255574
    49   6 C       50   6 C                                       1.4138197
    50   6 C       51   6 C                                       1.4147556
    51   6 C       52   6 C                                       1.3954018
    52   6 C       53   6 C                                       1.3803079
    49   6 C       54   6 C                                       1.3916062
    53   6 C       54   6 C                                       1.3820080
    52   6 C       55   1 H                                       1.0779238
    53   6 C       56   1 H                                       1.0805251
    54   6 C       57   1 H                                       1.0788165
    48   6 C       58   6 C                                       1.3886049
    58   6 C       59   6 C                                       1.3908339
    41   6 C       60   6 C                                       1.3991556
    59   6 C       60   6 C                                       1.3874989
    58   6 C       61   1 H                                       1.0753862 (min)
    60   6 C       62   1 H                                       1.0766025
    46   6 C       63   6 C                                       1.4119462
    47   6 C       63   6 C                                       1.4013474
    45   6 C       64   6 C                                       1.4112476
    63   6 C       65   6 C                                       1.4255564
    65   6 C       66   6 C                                       1.4138196
    66   6 C       67   6 C                                       1.3916097
    67   6 C       68   6 C                                       1.3820029
    68   6 C       69   6 C                                       1.3803141
    65   6 C       70   6 C                                       1.4147592
    69   6 C       70   6 C                                       1.3953960
    67   6 C       71   1 H                                       1.0788170
    68   6 C       72   1 H                                       1.0805260
    69   6 C       73   1 H                                       1.0779237
    44   6 C       74   6 C                                       1.3991430
    74   6 C       75   6 C                                       1.3875221
    64   6 C       76   6 C                                       1.3886205
    75   6 C       76   6 C                                       1.3908191
    74   6 C       77   1 H                                       1.0765982
    76   6 C       78   1 H                                       1.0753873
    27   6 C       79   6 C                                       1.4130501
    26   6 C       80   6 C                                       1.4125100
    79   6 C       82   6 C                                       1.4268070
    81   6 C       82   6 C                                       1.4149264
    82   6 C       83   6 C                                       1.4149861
    83   6 C       84   6 C                                       1.3956432
    84   6 C       85   6 C                                       1.3798750
    81   6 C       86   6 C                                       1.3914740
    85   6 C       86   6 C                                       1.3817656
    84   6 C       87   1 H                                       1.0778218
    85   6 C       88   1 H                                       1.0805204
    86   6 C       89   1 H                                       1.0787610
    80   6 C       90   6 C                                       1.3876644
    90   6 C       91   6 C                                       1.3944804
    25   6 C       92   6 C                                       1.4003399
    91   6 C       92   6 C                                       1.3828190
    90   6 C       93   1 H                                       1.0771974
    92   6 C       94   1 H                                       1.0764524
     8   6 C       95   6 C                                       1.4130512
    79   6 C       95   6 C                                       1.4024548
     9   6 C       96   6 C                                       1.4125077
    95   6 C       97   6 C                                       1.4268056
    97   6 C       98   6 C                                       1.4149325
    98   6 C       99   6 C                                       1.3914756
    99   6 C      100   6 C                                       1.3817673
   100   6 C      101   6 C                                       1.3798744
    97   6 C      102   6 C                                       1.4149870
   101   6 C      102   6 C                                       1.3956440
    99   6 C      103   1 H                                       1.0787640
   100   6 C      104   1 H                                       1.0805208
   101   6 C      105   1 H                                       1.0778208
    10   6 C      106   6 C                                       1.4003222
   106   6 C      107   6 C                                       1.3828243
    96   6 C      108   6 C                                       1.3876784
   107   6 C      108   6 C                                       1.3944776
   106   6 C      109   1 H                                       1.0764540
   108   6 C      110   1 H                                       1.0772034
   111   6 C      112   6 C                                       1.5311824
   111   6 C      113   1 H                                       1.0877327
   111   6 C      114   1 H                                       1.0884422
   111   6 C      115   1 H                                       1.0868284
   112   6 C      116   6 C                                       1.5343193
   116   6 C      117   1 H                                       1.0850811
   116   6 C      118   1 H                                       1.0881315
   116   6 C      119   1 H                                       1.0885460
   112   6 C      120   6 C                                       1.5346243
   120   6 C      121   1 H                                       1.0881092
   120   6 C      122   1 H                                       1.0866044
   120   6 C      123   1 H                                       1.0883382
   124   6 C      125   6 C                                       1.5311886
   124   6 C      126   1 H                                       1.0868178
   124   6 C      127   1 H                                       1.0884346
   124   6 C      128   1 H                                       1.0877285
   125   6 C      129   6 C                                       1.5346272
   129   6 C      130   1 H                                       1.0866167
   129   6 C      131   1 H                                       1.0881129
   129   6 C      132   1 H                                       1.0883347
   125   6 C      133   6 C                                       1.5343075
   133   6 C      134   1 H                                       1.0881411
   133   6 C      135   1 H                                       1.0850799
   133   6 C      136   1 H                                       1.0885391
   137   6 C      138   6 C                                       1.5337726
   137   6 C      139   1 H                                       1.0878834
   137   6 C      140   1 H                                       1.0882447
   137   6 C      141   1 H                                       1.0872367
   138   6 C      142   6 C                                       1.5345492
   142   6 C      143   1 H                                       1.0856123
   142   6 C      144   1 H                                       1.0879930
   142   6 C      145   1 H                                       1.0879133
   138   6 C      146   6 C                                       1.5353587
   146   6 C      147   1 H                                       1.0879072
   146   6 C      148   1 H                                       1.0865305
   146   6 C      149   1 H                                       1.0883617
   150   6 C      151   6 C                                       1.5337701
   150   6 C      152   1 H                                       1.0872292
   150   6 C      153   1 H                                       1.0882311
   150   6 C      154   1 H                                       1.0878760
   151   6 C      155   6 C                                       1.5353593
   155   6 C      156   1 H                                       1.0865276
   155   6 C      157   1 H                                       1.0879045
   155   6 C      158   1 H                                       1.0883601
   151   6 C      159   6 C                                       1.5345484
   159   6 C      160   1 H                                       1.0879704
   159   6 C      161   1 H                                       1.0856093
   159   6 C      162   1 H                                       1.0879017
   163   6 C      164   6 C                                       1.5317401
   163   6 C      165   1 H                                       1.0878444
   163   6 C      166   1 H                                       1.0882196
   163   6 C      167   1 H                                       1.0869090
   164   6 C      168   6 C                                       1.5358427 (max)
   168   6 C      169   1 H                                       1.0859940
   168   6 C      170   1 H                                       1.0880943
   168   6 C      171   1 H                                       1.0880458
   164   6 C      172   6 C                                       1.5350647
   172   6 C      173   1 H                                       1.0880321
   172   6 C      174   1 H                                       1.0871874
   172   6 C      175   1 H                                       1.0882330
   176   6 C      177   6 C                                       1.5317430
   176   6 C      178   1 H                                       1.0869055
   176   6 C      179   1 H                                       1.0882228
   176   6 C      180   1 H                                       1.0878453
   177   6 C      181   6 C                                       1.5350633
   181   6 C      182   1 H                                       1.0871847
   181   6 C      183   1 H                                       1.0880305
   181   6 C      184   1 H                                       1.0882334
   177   6 C      185   6 C                                       1.5358326
   185   6 C      186   1 H                                       1.0880972
   185   6 C      187   1 H                                       1.0859949
   185   6 C      188   1 H                                       1.0880501

 * 2 distinct bonds (by element types)

   Z      Z             #   av. dist./Å        max./Å        min./Å
   1 H    6 C          78     1.0845076     1.0885460     1.0753862
   6 C    6 C         118     1.4243850     1.5358427     1.3798744


optimized geometry written to: xtbopt.xyz


           -------------------------------------------------
          | TOTAL ENERGY             -275.952808209376 Eh   |
          | GRADIENT NORM               0.000401487996 Eh/α |
          | HOMO-LUMO GAP               1.143718690103 eV   |
           -------------------------------------------------

------------------------------------------------------------------------
 * finished run on 2024/11/12 at 01:44:04.548     
------------------------------------------------------------------------
 total:
 * wall-time:     0 d,  0 h,  2 min, 36.280 sec
 *  cpu-time:     0 d,  0 h,  8 min, 24.336 sec
 * ratio c/w:     3.227 speedup
 SCF:
 * wall-time:     0 d,  0 h,  0 min,  2.096 sec
 *  cpu-time:     0 d,  0 h,  0 min,  7.468 sec
 * ratio c/w:     3.563 speedup
 ANC optimizer:
 * wall-time:     0 d,  0 h,  2 min, 34.039 sec
 *  cpu-time:     0 d,  0 h,  8 min, 16.387 sec
 * ratio c/w:     3.222 speedup

