188
 energy: -273.786226938732 gnorm: 1.569941666948 xtb: 6.6.1 (8d0f1dd)
C            1.20254547903643        0.69511441415318        0.03684247217568
C            0.00097544912065        1.39044357458753        0.03342574013030
C            0.00236873244802        2.77868499286239        0.03348613699655
C            1.20530490430880        3.47158904788438        0.03695346493210
C            2.40687012157035        2.77625053985156        0.04036073860753
C            2.40548165089721        1.38801846917517        0.04030980011123
C            3.60702940226023        0.69270883691075        0.04372596942537
C            4.80998768093061        1.38563378493125        0.04719417575841
C            4.81137138912491        2.77387489139916        0.04723543575963
C            3.60982314459073        3.46918365528004        0.04381931833213
C            1.20669325849045        4.85981889036290        0.03700455027528
C            0.00513109550176        5.55516207768660        0.03358898349102
C           -1.18947858686418        4.81578444486840       -0.66829532333931
C           -1.19920096923887        3.47401807868207        0.03006112946835
H            2.14438406420415        5.39996520810736        0.03982295267761
H           -2.11775629365611        5.31133976947857       -1.36941428968143
C           -1.20194959664571        0.69752049740929        0.02995780589931
C           -1.20333858346020       -0.69073886944855        0.02990767491569
C           -0.00178114468071       -1.38605457121444        0.03331434080339
C            1.20114390108565       -0.69313149403620        0.03678227503438
C            1.19839769958240       -3.46959006205654        0.03668039407608
C           -0.00317233033337       -2.77426090162219        0.03326366203070
C            2.40272234211633       -1.38845393635816        0.04019866050793
C            2.40133387144318       -2.77668600703456        0.04014772201163
C            3.60288074104964       -3.47199508149190        0.04356484597577
C            4.80583990147659       -2.77907069127847        0.04703209765881
C            4.80722360967089       -1.39082958481056        0.04707335766003
C            3.60567585830787       -0.69551995254614        0.04365718834590
C           -1.20609737609973       -3.46718397880043        0.02979572779970
C           -1.19915234662693       -4.90190675557416       -0.66866094361113
C           -0.00592892413474       -5.55075904742416        0.03315226270379
C            1.19699612163163       -4.85783597024592        0.03662019693478
H           -2.12846031500564       -5.48861770205121       -1.36972822776996
H            2.13361565155549       -5.39984190665134        0.03915846986727
C           -3.60787132371530       -0.68820471641599        0.02301604356180
C           -2.40631753273059       -1.38356273263629        0.02643149469521
C           -2.40352019707117        1.39291524016864        0.02653469943898
C           -3.60646684625280        0.70002519310012        0.02306731684265
C           -4.80799206395118        1.39537274193872        0.01965190076115
C           -4.80658163016512        2.78363152182368        0.01970332900091
C           -3.60362445092138        3.47652305236787        0.02316071574349
C           -2.40209923322301        2.78117550352926        0.02657613182499
C           -2.40774433892122       -2.77179149737245        0.02637987880823
C           -3.61071412036569       -3.46469606342238        0.02291218381037
C           -4.81225016229351       -2.76934408318477        0.01948732321937
C           -4.81082374468828       -1.38111389225799        0.01953984186972
C           -6.01089898989854        0.70252986227028        0.01617584054826
C           -6.00795172353176        3.47900409043490        0.01627306527030
C           -7.21094297065441        2.78613754190081        0.01281361000236
C           -7.21240844993127        1.39790533213498        0.01276075954175
C           -8.41538371574516        0.70506833543816        0.00929251298924
C           -9.61691496115948        1.40046420185635        0.00587681736484
C           -9.61544466922840        2.78870575922064        0.00593912619542
C           -8.41246940341452        3.48154275591746        0.00940737274792
H          -10.55471286574375        0.86048663176363        0.00313010221350
H          -10.55203402376348        3.33076267393376        0.00332665988009
H           -8.41132791608733        4.56368518778934        0.00957373111916
C           -6.00648549089557        4.86723358057209        0.01632610565144
C           -4.80349635081438        5.56010529736659        0.01979421247764
C           -3.61040938063980        4.81822043924761        0.72162198490220
H           -6.94306430320218        5.40930687289597        0.01354830139345
H           -2.68111482884720        5.31181380667031        1.42277811191737
C           -6.01235187803911       -0.68571580616401        0.01613305624533
C           -6.01531299397840       -3.46217465803878        0.01602662505535
C           -7.21535697473428       -1.37856697840825        0.01266439450945
C           -7.21682196083998       -2.76679831979053        0.01261149216220
C           -8.41979722665386       -3.45963531648735        0.00914324560969
C           -9.62132896523935       -2.76424031845271        0.00572760187193
C           -9.61985867330827       -1.37599876108842        0.00578991070250
C           -8.41688427734521       -0.68316127296083        0.00925811418139
H           -8.42096165493771       -4.54177680819983        0.00898657375525
H          -10.55912637665246       -3.30421702016188        0.00298083483395
H          -10.55644802784335       -0.83394184637529        0.00317744438718
C           -3.62071372634048       -4.89946930170943        0.72126177247471
C           -4.81526775311718       -5.54581583553565        0.01939911742787
C           -6.01676588211898       -4.85042032647307        0.01598384075241
H           -2.69261275016104       -5.48814229285303        1.42228422115650
H           -6.95449771490159       -5.39050023582698        0.01340508747961
C            6.01006360123632       -0.69807325734785        0.05056540237155
C            6.00711495994182       -3.47454779608895        0.05046918418614
C            7.21010708882103       -2.78168180536193        0.05392768480408
C            7.21157256809789       -1.39344959559611        0.05398053526469
C            8.41454696406095       -0.70061210746851        0.05744873874358
C            9.61607820947528       -1.39600797388670        0.06086443436798
C            9.61460839880962       -2.78424859649115        0.06080307137440
C            8.41163401475230       -3.47708615099504        0.05733387017188
H           10.55387698391037       -0.85603089522476        0.06361119259294
H           10.55119862319553       -3.32630600263504        0.06341558076334
H            8.41049202234821       -4.55922938487416        0.05716856141091
C            6.00564959715645       -4.86277777765691        0.05041618687863
C            4.80266095024642       -5.55564862606787        0.04694802816579
C            3.60957348690069       -4.81376463633243       -0.65487969237214
H            6.94222803278339       -5.40484971016647        0.05319389617636
H            2.68027893510809       -5.30735800375513       -1.35603581938730
C            6.01151647747116        0.69017247746273        0.05060918439811
C            6.01447711214502        3.46663039457766        0.05071466975109
C            7.21452108099516        1.38302278132343        0.05407789802062
C            7.21598657217776        2.77125492471295        0.05412975075761
C            8.41896095623508        3.46409247921685        0.05759895196012
C            9.62049220164940        2.76869661279866        0.06101464758452
C            9.61902190971832        1.38045505543437        0.06095233875394
C            8.41604751375526        0.68761756730677        0.05748413527506
H            8.42012490325351        4.54623303616947        0.05775467797757
H           10.55829048291334        3.30867282307706        0.06376145769612
H           10.55561213410423        0.83839764929047        0.06356484814289
C            3.61987697465628        4.90392552967908       -0.65452052074190
C            4.81443187128380        5.55027157207453        0.04734217737857
C            6.01592998837986        4.85487612938824        0.05075845177766
H            2.69177686832766        5.49259802939191       -1.35554292635006
H            6.95366182116247        5.39495603874216        0.05333720505046
C            1.25462365152837       -7.23922069369598        0.77507479821958
C           -0.00713056198348       -6.75075820552969        0.03305323486884
H            1.26106387033274       -6.87183311634295        1.80399986075447
H            1.29455915343673       -8.33104539726109        0.79954023617344
H            2.15702436471440       -6.87321005290085        0.27964132191819
C           -1.28175124740528       -7.23595159611466        0.75527933191291
H           -2.17533970781032       -6.87355722279396        0.24170301448243
H           -1.32125388078221       -8.32757690078266        0.78567225807654
H           -1.30668853968561       -6.86208793104644        1.78158800742846
C            0.00374336590806       -7.23701503850951       -1.43153832712742
H            0.01001538070432       -8.32868171387420       -1.48009038203343
H           -0.87916009109580       -6.87409354010275       -1.96297507729232
H            0.88880888885074       -6.86437084183942       -1.95269606049642
C            1.26891651101559        7.24111600890659        0.77571024042241
C            0.00620122089138        6.75516170914967        0.03367939453842
H            2.17055121272425        6.87287227595143        0.28058142621345
H            1.31130077967256        8.33285949277955        0.79970057442023
H            1.27438116007042        6.87416045001308        1.80481607982129
C            0.01804309074843        7.24167187360368       -1.43085017621466
H           -0.86582558670599        6.88104262287191       -1.96218255895886
H            0.02697043385176        8.33332886386584       -1.47915399877429
H            0.90212056692447        6.86699871017191       -1.95213079153450
C           -1.26750766749749        7.24260859723861        0.75593414962252
H           -1.30529695492734        8.33430448133470        0.78602199800373
H           -2.16178575547389        6.88145167656254        0.24262488725229
H           -1.29296216760848        6.86906655144876        1.78239904861577
C           -6.06381384457179        7.24871000458077       -0.72220218821522
C           -4.80210015100114        6.76010423937429        0.01979234137666
H           -6.96620351036164        6.88228293289376       -0.22709969267962
H           -6.10395383808252        8.34053905937086       -0.74611008042979
H           -6.07003299649360        6.88184197501969       -1.75133557867748
C           -4.81294136710877        7.24652871829644        1.48435910867156
H           -3.92981602625067        6.88404336886467        2.01566425098396
H           -4.81962450744076        8.33819777472165        1.53274372963712
H           -5.69778776861079        6.87363558895372        2.00561118884096
C           -3.52739118306217        7.24498654854867       -0.70242603859903
H           -3.48735876848963        8.33660470176709       -0.73243230245322
H           -2.63385742017273        6.88195274228069       -0.18914359816276
H           -3.50270562252348        6.87146907975705       -1.72891810786668
C           -6.07928832609347       -7.23162604730647       -0.72264831073014
C           -4.81653331032213       -6.74581475947011        0.01940956224278
H           -6.08497402374182       -6.86415018477359       -1.75154584352288
H           -6.12146851893866       -8.32336441180588       -0.74719582320481
H           -6.98093508399406       -6.86379787921474       -0.22718830248059
C           -3.54291283565397       -7.23357352726773       -0.70285356310463
H           -2.64858194344999       -6.87305429065303       -0.18924967427356
H           -3.50565439314263       -8.32527433566341       -0.73332828539782
H           -3.51720689346467       -6.85968421328039       -1.72913409919416
C           -4.82840680344621       -7.23215694694578        1.48396366264584
H           -4.83692328120198       -8.32381273025628        1.53243467733877
H           -3.94476004264427       -6.87109093683448        2.01542771256036
H           -5.71270480085524       -6.85773382882666        2.00515003504858
C            3.33649278007725       -7.24107927937498        0.04272525259030
C            4.80126338741119       -6.75564794502834        0.04694990807978
H            2.81279505905132       -6.87299241587038       -0.84268652459904
H            3.28740890249770       -8.33280517311961        0.04221343304446
H            2.80786121357261       -6.87358996799065        0.92547338525110
C            5.53669359708794       -7.24291598939557       -1.21930266342258
H            6.56807713858648       -6.88265849041288       -1.22662049955579
H            5.55321671057050       -8.33459662780659       -1.26499423309755
H            5.04142383913034       -6.86841589454838       -2.11828255737632
C            5.52947505206824       -7.24286134061698        1.31735213404815
H            5.54628259504330       -8.33454582335171        1.36291593695522
H            6.56063971158182       -6.88206862697998        1.33084554050039
H            5.02879941510582       -6.86878987557579        2.21356986546570
C            3.35200706629407        7.23895110707006        0.04317514653571
C            4.81569741658301        6.75027056238529        0.04733273028729
H            2.82243634729099        6.87203815172205        0.92557621293089
H            3.30534291249871        8.33078364119818        0.04340629784971
H            2.82762130849003        6.87262435356881       -0.84258395439835
C            5.54494872435682        7.23592245727347        1.31777222053770
H            6.57547209311079        6.87337703292684        1.33099187795748
H            5.56363289443367        8.32756469894482        1.36355772134628
H            5.04371379377370        6.86253308202360        2.21390277959917
C            5.55224523795865        7.23585116820883       -1.21888254406413
H            5.57173579562731        8.32749518478978       -1.26434928436721
H            6.58266684355649        6.87277063292143       -1.22647495551173
H            5.05587689399916        6.86287997304871       -2.11795033909281
188
 energy: -274.493368399562 gnorm: 0.772311960693 xtb: 6.6.1 (8d0f1dd)
C            1.20198309997559        0.69495792805455        0.03731546799429
C            0.00031051278583        1.39175770892122        0.03743599511237
C            0.00185073085827        2.78216575688124        0.03815237864810
C            1.20646338449331        3.47058112061236        0.03375789652378
C            2.40895852300023        2.77623363262093        0.03675507492690
C            2.40599336806027        1.38991218539893        0.04327110330030
C            3.60824292271432        0.69242547707928        0.04314403873453
C            4.80909079984403        1.38674263067435        0.05131700035584
C            4.80972503303496        2.78071094110126        0.04945362993785
C            3.60641007609510        3.48431359436278        0.01098885246652
C            1.19575360780648        4.84478187949654        0.04451271729886
C           -0.00680598942412        5.49092776278904        0.00778107830031
C           -1.18732286948073        4.80836673015781       -0.64927384536334
C           -1.20311277826169        3.48722274253169        0.00054247263869
H            2.13097110368505        5.38583847197154        0.05645777644442
H           -2.09313461556602        5.29605232400002       -1.34604925991615
C           -1.20131156063012        0.69657298689213        0.02850755643213
C           -1.20291754536982       -0.69012994369052        0.02850985293539
C           -0.00286720871881       -1.38784456522441        0.03734694210135
C            1.20021030033018       -0.69300062874893        0.03732111492142
C            1.19987153165605       -3.46929972096261        0.03347327614366
C           -0.00593893882551       -2.77996285433372        0.03628818149333
C            2.40281811638985       -1.39011741177329        0.04305925595220
C            2.40223132385271       -2.77464601081969        0.03674730796241
C            3.59998756689172       -3.48289407825765        0.01305646036346
C            4.80623460493595       -2.78385901602898        0.05086118528059
C            4.80669478152117       -1.39145029860343        0.05116703182460
C            3.60694441241694       -0.69516124737952        0.04301825679943
C           -1.21053102964283       -3.48541021065269       -0.00193405267802
C           -1.19923311584406       -4.87984492524560       -0.64869580867094
C           -0.01838644890603       -5.48953997878450        0.00818318717516
C            1.18650903417548       -4.84272747038814        0.04406075958419
H           -2.10177429827846       -5.46521965832028       -1.34550484922880
H            2.11956052478778       -5.38709819286907        0.05576365927176
C           -3.60894451112408       -0.68808761591604        0.02419272951997
C           -2.40635273513096       -1.38671800445808        0.02638845932617
C           -2.40353045788550        1.39526736200762        0.02648833180631
C           -3.60776710836792        0.69954153734242        0.02429372676118
C           -4.80734534128830        1.39595379353530        0.01551900706504
C           -4.80689854985311        2.78815139129613        0.01556519156670
C           -3.60007473194166        3.48927333479099        0.05297953669273
C           -2.40224555739269        2.78027935150514        0.02673499290439
C           -2.40787103662909       -2.77519658786258        0.02652889220657
C           -3.60677274684096       -3.48246586490926        0.05493913394623
C           -4.81033068739337       -2.77608471307376        0.01695334790548
C           -4.80978673623062       -1.38225195408239        0.01537950904918
C           -6.01073479250060        0.70180115686660        0.01613956323178
C           -6.00948365672242        3.47934024040412        0.01880431607984
C           -7.22017135416299        2.78795546495415        0.01414064718934
C           -7.21690596510494        1.39939105486197        0.01270091882231
C           -8.42284252882147        0.71078488183294        0.00906055381426
C           -9.62032562371227        1.40761197362282        0.00589331420589
C           -9.61731547459832        2.78995080372374        0.00585249220130
C           -8.42042760759836        3.48073319205037        0.00947743005126
H          -10.55455317794707        0.86574937898643        0.00316985740668
H          -10.55234708340087        3.33094956277047        0.00330827954451
H           -8.41575654091883        4.56085809365106        0.00952563278732
C           -6.00154071232324        4.85036315326273        0.01592207894526
C           -4.79487420151193        5.49615951849176        0.04704762988472
C           -3.61366365085497        4.81229357324030        0.70061782467401
H           -6.93468162711604        5.40077587429256        0.01102667209717
H           -2.70600758730990        5.29681739600186        1.39904523003137
C           -6.01193346934854       -0.68530792061733        0.01605532380513
C           -6.01690301768166       -3.46355424304696        0.01870206849642
C           -7.21989943946506       -1.38017555938096        0.01263962978754
C           -7.22613913595515       -2.76866405491755        0.01383988372456
C           -8.42773187429334       -3.45878736830808        0.00918380424270
C           -9.62324886098523       -2.76543497748715        0.00565719677652
C           -9.62330825262940       -1.38318997717868        0.00580392719852
C           -8.42429215438119       -0.68887924625386        0.00904395635229
H           -8.42538855623689       -4.53893219449152        0.00893735759754
H          -10.55944206663943       -3.30440384159262        0.00296644888887
H          -10.55629964776953       -0.83921012515908        0.00320618447555
C           -3.62183105911197       -4.87883083497791        0.69930149428179
C           -4.80573278518740       -5.48486658218945        0.04578672091828
C           -6.01200596231961       -4.83279449008834        0.01555476866638
H           -2.71939674951983       -5.46501002390664        1.39768926285917
H           -6.94596802055273       -5.38193867381589        0.01117269140987
C            6.00987045698696       -0.69743030144887        0.05065936825892
C            6.00948892341042       -3.47605051852093        0.04841971431651
C            7.21938007315447       -2.78367434468088        0.05260607102275
C            7.21604749366933       -1.39498453256342        0.05402650152265
C            8.42198227892492       -0.70635009061459        0.05767480693470
C            9.61947528092428       -1.40313033955624        0.06085121236977
C            9.61646728036874       -2.78550196088007        0.06090830655053
C            8.41968625337058       -3.47625404416205        0.05727516310483
H           10.55371542676779       -0.86129403037144        0.06356611125330
H           10.55151886161333       -3.32649811697267        0.06343063570677
H            8.41496660049766       -4.55647875151920        0.05719476418187
C            6.00188941186879       -4.84841738271867        0.05336346841854
C            4.79473267137476       -5.49147128889040        0.01951117712868
C            3.61957846649740       -4.80547952803918       -0.63980871658959
H            6.93471354346715       -5.40371551295801        0.05835660910588
H            2.71496680824701       -5.28693840565478       -1.34807319454711
C            6.01110969362400        0.68985434884602        0.05074553232066
C            6.01688443039509        3.46912026902752        0.04851656260012
C            7.21902595300625        1.38466464734813        0.05409123900167
C            7.22530698277741        2.77330821330502        0.05291182457980
C            8.42698960937920        3.46322263305661        0.05756936059281
C            9.62239141030733        2.76990545699452        0.06110631492631
C            9.62245703408042        1.38760985884043        0.06094195087674
C            8.42343866004501        0.69336001209591        0.05769165707131
H            8.42459744486487        4.54346472159048        0.05778218928881
H           10.55861248316400        3.30886519309240        0.06377205915912
H           10.55546522700595        0.84366668933579        0.06352988095315
C            3.62792989696227        4.88030445629302       -0.63921537103639
C            4.80529667170724        5.48934001118401        0.02081719154240
C            6.01223406746558        4.83990094941736        0.05368410543040
H            2.72766706272814        5.46420731104783       -1.34829266782482
H            6.94596951905509        5.39375822726472        0.05820752887292
C            1.21920273729122       -7.25481816213554        0.78196548599927
C           -0.01601413922547       -6.81334204267527        0.03547695821171
H            1.25486348689186       -6.87232366531644        1.80548812941903
H            1.29115219028398       -8.33590582844398        0.80285374931414
H            2.09706783841972       -6.88129176569730        0.27607820484514
C           -1.26395085323518       -7.25170679055714        0.77464513682851
H           -2.12604140616051       -6.87287010765283        0.27980224886742
H           -1.32213077942587       -8.33225720586043        0.78878796828606
H           -1.30018586369983       -6.86391587077734        1.78650368540232
C            0.00340186123422       -7.25091545895912       -1.43591095398107
H            0.01034265826867       -8.33260414893656       -1.48275323234488
H           -0.87590816649885       -6.87671066450284       -1.96230041431614
H            0.88700682562181       -6.86531436336938       -1.95153891170305
C            1.23323893468703        7.25604109147147        0.78238860779984
C           -0.00405603817696        6.81500703444065        0.03546913250272
H            2.11146324660217        6.88123698270066        0.27710600031759
H            1.30771168887554        8.33741637648827        0.80286638144871
H            1.26820662029490        6.87464877459495        1.80626987932341
C            0.01717497329825        7.25486055132897       -1.43523564321259
H           -0.86320070468631        6.88299130667055       -1.96131325107885
H            0.02715355509356        8.33697084929146       -1.48172241585475
H            0.90015207917675        6.86791060680962       -1.95109153432664
C           -1.24988577748766        7.25745184087615        0.77555897155336
H           -1.30614736645376        8.33859807357983        0.78898713049247
H           -2.11266178002894        6.87945940961854        0.28113200877750
H           -1.28704276570170        6.87042451247133        1.78721787703489
C           -6.06677527012917        7.26407282392782       -0.72517314935512
C           -4.80306786401534        6.82026496595063        0.01909732508775
H           -6.96435280390853        6.89373996376397       -0.22886406325458
H           -6.10497844360453        8.34510809879078       -0.74820279406850
H           -6.06923221564772        6.88278569018189       -1.74944194026836
C           -4.81247927838037        7.25948301851277        1.48947621143094
H           -3.93204383340111        6.88593823994451        2.01454455244323
H           -4.81980288817928        8.34178765733778        1.53511009075224
H           -5.69653865420347        6.87438136015381        2.00360817011015
C           -3.55040483143131        7.26028723640478       -0.72258800404144
H           -3.48669000163677        8.34104087296892       -0.73556333317863
H           -2.68398754216467        6.88014615508861       -0.22690595226630
H           -3.50887231737932        6.87294483152118       -1.73402765369577
C           -6.08270345402829       -7.24766400383736       -0.72584847949906
C           -4.81906995850894       -6.80865083123038        0.01816282315452
H           -6.08415904489977       -6.86511971517256       -1.74967257842837
H           -6.12277675422126       -8.32818986288226       -0.74941533671972
H           -6.97913344467345       -6.87531129289792       -0.22896045161849
C           -3.56632913403136       -7.24972797617072       -0.72276181917908
H           -2.69889474783024       -6.87233560099784       -0.22657400940479
H           -3.50498628389879       -8.33011571570685       -0.73661067802007
H           -3.52397497961868       -6.86161496581299       -1.73433146765818
C           -4.82851201638635       -7.24587631382381        1.48904114655601
H           -4.83728222969259       -8.32771558136918        1.53491781962802
H           -3.94765567338693       -6.87363933053416        2.01450418657946
H           -5.71152128807580       -6.85851791803492        2.00314765355436
C            3.36522212617679       -7.25833703210127        0.04073532808554
C            4.80726493645937       -6.81558818395295        0.04181026700741
H            2.83152330351933       -6.88261846966896       -0.84691608595241
H            3.28984502580784       -8.33755192356992        0.04282894475176
H            2.86418918622580       -6.87740908550283        0.93837376826060
C            5.54114330851855       -7.25621524641487       -1.22590358629611
H            6.56645413863685       -6.88497130073167       -1.22752933808268
H            5.55457228027706       -8.33841264035058       -1.26735288889865
H            5.04146985486622       -6.86904274119812       -2.11637756504868
C            5.53180860672700       -7.25289885312862        1.32056111484526
H            5.54738907363637       -8.33697942842799        1.36508657247038
H            6.55842683458900       -6.88431607529701        1.33144200968572
H            5.02870156799667       -6.86927844381598        2.21135993178087
C            3.38101842812194        7.25863393282654        0.04245887924090
C            4.82280618021347        6.81305966417038        0.04286918835824
H            2.87860744739900        6.87590153194396        0.93847862335796
H            3.30787456813328        8.33658202182512        0.04461918816497
H            2.84641540995088        6.88564181971657       -0.84560295274109
C            5.54760504279686        7.24660517365663        1.32127139178402
H            6.57329494891856        6.87563328274284        1.33160509949430
H            5.56488877089612        8.33023990729380        1.36594585798052
H            5.04359492921671        6.86304398908748        2.21166154459818
C            5.55693071359422        7.24947938128034       -1.22547007908893
H            5.57323167658728        8.33142113325393       -1.26679801213863
H            6.58107156023073        6.87513625220589       -1.22742758508931
H            5.05593122096460        6.86350072764731       -2.11595892266722
188
 energy: -274.898704807512 gnorm: 0.453778942161 xtb: 6.6.1 (8d0f1dd)
C            1.20078044320662        0.69491881633090        0.04000149606632
C           -0.00133435164222        1.39360869380640        0.04385472374863
C           -0.00072003759291        2.78499220839879        0.04422132758630
C            1.20563004557797        3.46708787629548        0.02937391916419
C            2.41143345298176        2.77464096534329        0.02786336251385