      -----------------------------------------------------------      
     |                   =====================                   |     
     |                           x T B                           |     
     |                   =====================                   |     
     |                         S. Grimme                         |     
     |          Mulliken Center for Theoretical Chemistry        |     
     |                    University of Bonn                     |     
      -----------------------------------------------------------      

   * xtb version 6.6.1 (8d0f1dd) compiled by 'conda@1efc2f54142f' on 2023-08-01

   xtb is free software: you can redistribute it and/or modify it under
   the terms of the GNU Lesser General Public License as published by
   the Free Software Foundation, either version 3 of the License, or
   (at your option) any later version.
   
   xtb is distributed in the hope that it will be useful,
   but WITHOUT ANY WARRANTY; without even the implied warranty of
   MERCHANTABILITY or FITNESS FOR A PARTICULAR PURPOSE.  See the
   GNU Lesser General Public License for more details.
   
   Cite this work as:
   * C. Bannwarth, E. Caldeweyher, S. Ehlert, A. Hansen, P. Pracht,
     J. Seibert, S. Spicher, S. Grimme, WIREs Comput. Mol. Sci., 2020, 11,
     e01493. DOI: 10.1002/wcms.1493
   
   for GFN2-xTB:
   * C. Bannwarth, S. Ehlert and S. Grimme., J. Chem. Theory Comput., 2019,
     15, 1652-1671. DOI: 10.1021/acs.jctc.8b01176
   for GFN1-xTB:
   * S. Grimme, C. Bannwarth, P. Shushkov, J. Chem. Theory Comput., 2017,
     13, 1989-2009. DOI: 10.1021/acs.jctc.7b00118
   for GFN0-xTB:
   * P. Pracht, E. Caldeweyher, S. Ehlert, S. Grimme, ChemRxiv, 2019, preprint.
     DOI: 10.26434/chemrxiv.8326202.v1
   for GFN-FF:
   * S. Spicher and S. Grimme, Angew. Chem. Int. Ed., 2020, 59, 15665-15673.
     DOI: 10.1002/anie.202004239
   
   for ALPB and GBSA implicit solvation:
   * S. Ehlert, M. Stahn, S. Spicher, S. Grimme, J. Chem. Theory Comput.,
     2021, 17, 4250-4261. DOI: 10.1021/acs.jctc.1c00471
   
   for DFT-D4:
   * E. Caldeweyher, C. Bannwarth and S. Grimme, J. Chem. Phys., 2017,
     147, 034112. DOI: 10.1063/1.4993215
   * E. Caldeweyher, S. Ehlert, A. Hansen, H. Neugebauer, S. Spicher,
     C. Bannwarth and S. Grimme, J. Chem. Phys., 2019, 150, 154122.
     DOI: 10.1063/1.5090222
   * E. Caldeweyher, J.-M. Mewes, S. Ehlert and S. Grimme, Phys. Chem. Chem. Phys.
     2020, 22, 8499-8512. DOI: 10.1039/D0CP00502A
   
   for sTDA-xTB:
   * S. Grimme and C. Bannwarth, J. Chem. Phys., 2016, 145, 054103.
     DOI: 10.1063/1.4959605
   
   in the mass-spec context:
   * V. Asgeirsson, C. Bauer and S. Grimme, Chem. Sci., 2017, 8, 4879.
     DOI: 10.1039/c7sc00601b
   * J. Koopman and S. Grimme, ACS Omega 2019, 4, 12, 15120-15133.
     DOI: 10.1021/acsomega.9b02011
   
   for metadynamics refer to:
   * S. Grimme, J. Chem. Theory Comput., 2019, 155, 2847-2862
     DOI: 10.1021/acs.jctc.9b00143
   
   for SPH calculations refer to:
   * S. Spicher and S. Grimme, J. Chem. Theory Comput., 2021, 17, 1701-1714
     DOI: 10.1021/acs.jctc.0c01306
   
   with help from (in alphabetical order)
   P. Atkinson, C. Bannwarth, F. Bohle, G. Brandenburg, E. Caldeweyher
   M. Checinski, S. Dohm, S. Ehlert, S. Ehrlich, I. Gerasimov, C. Hölzer
   A. Katbashev, J. Koopman, C. Lavigne, S. Lehtola, F. März, M. Müller,
   F. Musil, H. Neugebauer, J. Pisarek, C. Plett, P. Pracht, F. Pultar,
   J. Seibert, P. Shushkov, S. Spicher, M. Stahn, M. Steiner, T. Strunk,
   J. Stückrath, T. Rose, and J. Unsleber
   
 * started run on 2024/10/21 at 14:22:45.695     

           -------------------------------------------------
          |                Calculation Setup                |
           -------------------------------------------------

          program call               : xtb npomy.xyz --gfn 2 --chrg 0 --uhf 0 --opt --cma
          hostname                   : hpc-d30-10-4
          coordinate file            : npomy.xyz
          omp threads                :                     4

   ID    Z sym.   atoms
    1    6 C      1-8, 12-15, 17-20, 25-27, 29-34, 40-45, 49-52, 54-57,
                  62-64, 66-71
    2    1 H      9-11, 16, 21-24, 28, 35-39, 46-48, 53, 58-61, 65, 72-76

           -------------------------------------------------
          |                 G F N 2 - x T B                 |
           -------------------------------------------------

        Reference                      10.1021/acs.jctc.8b01176
      * Hamiltonian:
        H0-scaling (s, p, d)           1.850000    2.230000    2.230000
        zeta-weighting                 0.500000
      * Dispersion:
        s8                             2.700000
        a1                             0.520000
        a2                             5.000000
        s9                             5.000000
      * Repulsion:
        kExp                           1.500000    1.000000
        rExp                           1.000000
      * Coulomb:
        alpha                          2.000000
        third order                    shell-resolved
        anisotropic                    true
        a3                             3.000000
        a5                             4.000000
        cn-shift                       1.200000
        cn-exp                         4.000000
        max-rad                        5.000000


          ...................................................
          :                      SETUP                      :
          :.................................................:
          :  # basis functions                 220          :
          :  # atomic orbitals                 220          :
          :  # shells                          124          :
          :  # electrons                       220          :
          :  max. iterations                   250          :
          :  Hamiltonian                  GFN2-xTB          :
          :  restarted?                      false          :
          :  GBSA solvation                  false          :
          :  PC potential                    false          :
          :  electronic temp.          300.0000000     K    :
          :  accuracy                    1.0000000          :
          :  -> integral cutoff          0.2500000E+02      :
          :  -> integral neglect         0.1000000E-07      :
          :  -> SCF convergence          0.1000000E-05 Eh   :
          :  -> wf. convergence          0.1000000E-03 e    :
          :  Broyden damping             0.4000000          :
          ...................................................

 iter      E             dE          RMSdq      gap      omega  full diag
   1   -119.4064537 -0.119406E+03  0.467E+00    0.00       0.0  T
   2   -119.4505533 -0.440996E-01  0.278E+00    0.00       1.0  T
   3   -119.4022530  0.483003E-01  0.851E-01    0.00       1.0  T
   4   -119.4516119 -0.493589E-01  0.305E-01    0.02       1.0  T
   5   -119.2597981  0.191814E+00  0.117E+00    0.56       1.0  T
   6   -119.4545469 -0.194749E+00  0.217E-01    0.02       1.0  T
   7   -119.4553764 -0.829548E-03  0.197E-01    0.02       1.0  T
   8   -119.4446325  0.107439E-01  0.327E-01    0.03       1.0  T
   9   -119.4583208 -0.136882E-01  0.140E-01    0.01       1.0  T
  10   -119.4604750 -0.215427E-02  0.765E-02    0.01       1.0  T
  11   -119.4610521 -0.577109E-03  0.473E-02    0.01       1.0  T
  12   -119.4614080 -0.355827E-03  0.162E-03    0.00       7.1  T
  13   -119.4614072  0.795697E-06  0.274E-03    0.00       4.2  T
  14   -119.4614080 -0.841154E-06  0.144E-03    0.00       8.0  T
  15   -119.4614083 -0.313216E-06  0.224E-04    0.00      51.2  T
  16   -119.4614083  0.151957E-09  0.224E-04    0.00      51.2  T

   *** convergence criteria satisfied after 16 iterations ***

         #    Occupation            Energy/Eh            Energy/eV
      -------------------------------------------------------------
         1        2.0000           -0.6604759             -17.9725
       ...           ...                  ...                  ...
       104        2.0000           -0.3990453             -10.8586
       105        2.0000           -0.3969948             -10.8028
       106        2.0000           -0.3864123             -10.5148
       107        2.0000           -0.3819885             -10.3944
       108        2.0000           -0.3799648             -10.3394
       109        2.0000           -0.3561445              -9.6912
       110        1.0203           -0.3215782              -8.7506 (HOMO)
       111        0.9797           -0.3215010              -8.7485 (LUMO)
       112                         -0.2748207              -7.4783
       113                         -0.2523566              -6.8670
       114                         -0.2462850              -6.7018
       115                         -0.2272920              -6.1849
       ...                                ...                  ...
       220                          2.1446999              58.3603
      -------------------------------------------------------------
                  HL-Gap            0.0000773 Eh            0.0021 eV
             Fermi-level           -0.3215396 Eh           -8.7495 eV

 SCC (total)                   0 d,  0 h,  0 min,  0.731 sec
 SCC setup                      ...        0 min,  0.001 sec (  0.163%)
 Dispersion                     ...        0 min,  0.003 sec (  0.461%)
 classical contributions        ...        0 min,  0.001 sec (  0.074%)
 integral evaluation            ...        0 min,  0.014 sec (  1.983%)
 iterations                     ...        0 min,  0.579 sec ( 79.235%)
 molecular gradient             ...        0 min,  0.126 sec ( 17.281%)
 printout                       ...        0 min,  0.006 sec (  0.799%)

         :::::::::::::::::::::::::::::::::::::::::::::::::::::
         ::                     SUMMARY                     ::
         :::::::::::::::::::::::::::::::::::::::::::::::::::::
         :: total energy            -116.903622300518 Eh    ::
         :: gradient norm              0.468316671143 Eh/a0 ::
         :: HOMO-LUMO gap              0.002103049143 eV    ::
         ::.................................................::
         :: SCC energy              -119.461408329713 Eh    ::
         :: -> isotropic ES            0.004080541493 Eh    ::
         :: -> anisotropic ES          0.009598617128 Eh    ::
         :: -> anisotropic XC          0.068496562535 Eh    ::
         :: -> dispersion             -0.118076949940 Eh    ::
         :: repulsion energy           2.558086764849 Eh    ::
         :: add. restraining           0.000000000000 Eh    ::
         :: total charge              -0.000000000000 e     ::
         :::::::::::::::::::::::::::::::::::::::::::::::::::::

      ----------------------------------------------------------- 
     |                   =====================                   |
     |                        A N C O P T                        |
     |                   =====================                   |
     |               Approximate Normal Coordinate               |
     |                Rational Function Optimizer                |
      ----------------------------------------------------------- 

          ...................................................
          :                      SETUP                      :
          :.................................................:
          :   optimization level            normal          :
          :   max. optcycles                   228          :
          :   ANC micro-cycles                  20          :
          :   degrees of freedom               222          :
          :.................................................:
          :   RF solver                   davidson          :
          :   write xtbopt.log                true          :
          :   linear?                        false          :
          :   energy convergence         0.5000000E-05 Eh   :
          :   grad. convergence          0.1000000E-02 Eh/α :
          :   maxmium RF displ.          1.0000000          :
          :   Hlow (freq-cutoff)         0.1000000E-01      :
          :   Hmax (freq-cutoff)         5.0000000          :
          :   S6 in model hess.         20.0000000          :
          ...................................................

generating ANC from model Hessian ...
Using Lindh-Hessian (1995)
 Shifting diagonal of input Hessian by    1.0009933325928816E-002
 Lowest  eigenvalues of input Hessian
    0.010000    0.000000    0.000000    0.000000    0.000000    0.000000
    0.000000    0.010131    0.010154    0.010501    0.010519    0.010716
    0.010991    0.011527    0.011738    0.011849    0.012344    0.012384
 Highest eigenvalues
    2.111515    2.124502    2.245859    2.497939    2.555594    3.506602


........................................................................
.............................. CYCLE    1 ..............................
........................................................................

 iter      E             dE          RMSdq      gap      omega  full diag
   1   -119.4614083 -0.119461E+03  0.305E-04    0.00       0.0  T
   2   -119.4613931  0.152392E-04  0.982E-03    0.00       1.2  T
   3   -119.4614083 -0.152537E-04  0.314E-05    0.00     365.0  T
   4   -119.4614083  0.219586E-09  0.474E-05    0.00     241.8  T
   5   -119.4614083 -0.294406E-09  0.197E-05    0.00     581.5  T
     SCC iter.                  ...        0 min,  0.128 sec
     gradient                   ...        0 min,  0.086 sec
 * total energy  :  -116.9036223 Eh     change       -0.7577242E-08 Eh
   gradient norm :     0.4683167 Eh/α   predicted     0.0000000E+00 (-100.00%)
   displ. norm   :     0.4042350 α      lambda       -0.1167448E+00
   maximum displ.:     0.1341237 α      in ANC's #136, #121, #150, ...

........................................................................
.............................. CYCLE    2 ..............................
........................................................................

 iter      E             dE          RMSdq      gap      omega  full diag
   1   -119.4641253 -0.119464E+03  0.285E-01    0.00       0.0  T
   2   -119.4646191 -0.493802E-03  0.197E-01    0.00       1.0  T
   3   -119.4644514  0.167679E-03  0.782E-02    0.00       1.0  T
   4   -119.4556170  0.883439E-02  0.241E-01    0.02       1.0  T
   5   -119.4630366 -0.741959E-02  0.106E-01    0.01       1.0  T
   6   -119.4647947 -0.175815E-02  0.429E-03    0.00       2.7  T
   7   -119.4647956 -0.903284E-06  0.226E-03    0.00       5.1  T
   8   -119.4647958 -0.127771E-06  0.125E-03    0.00       9.2  T
   9   -119.4647958 -0.631635E-07  0.378E-04    0.00      30.4  T
  10   -119.4647958 -0.102960E-07  0.199E-04    0.00      57.6  T
     SCC iter.                  ...        0 min,  0.294 sec
     gradient                   ...        0 min,  0.105 sec
 * total energy  :  -116.9747842 Eh     change       -0.7116189E-01 Eh
   gradient norm :     0.1065345 Eh/α   predicted    -0.6802140E-01 (  -4.41%)
   displ. norm   :     0.4960935 α      lambda       -0.2050085E-01
   maximum displ.:     0.2163098 α      in ANC's #20, #18, #24, ...

........................................................................
.............................. CYCLE    3 ..............................
........................................................................

 iter      E             dE          RMSdq      gap      omega  full diag
   1   -119.4320804 -0.119432E+03  0.133E-01    0.00       0.0  T
   2   -119.4321351 -0.546291E-04  0.872E-02    0.00       1.0  T
   3   -119.4311566  0.978414E-03  0.806E-02    0.01       1.0  T
   4   -119.3426953  0.884613E-01  0.754E-01    0.10       1.0  T
   5   -119.4321374 -0.894421E-01  0.110E-02    0.00       1.0  T
   6   -119.4321495 -0.120460E-04  0.523E-03    0.00       2.2  T
   7   -119.4321525 -0.303576E-05  0.147E-03    0.00       7.8  T
   8   -119.4321526 -0.108198E-06  0.854E-04    0.00      13.4  T
   9   -119.4321527 -0.479548E-07  0.284E-04    0.00      40.4  T
     SCC iter.                  ...        0 min,  0.293 sec
     gradient                   ...        0 min,  0.117 sec
 * total energy  :  -116.9900191 Eh     change       -0.1523488E-01 Eh
   gradient norm :     0.0558699 Eh/α   predicted    -0.1277316E-01 ( -16.16%)
   displ. norm   :     0.6204845 α      lambda       -0.1169727E-01
   maximum displ.:     0.3006217 α      in ANC's #18, #20, #22, ...

........................................................................
.............................. CYCLE    4 ..............................
........................................................................

 iter      E             dE          RMSdq      gap      omega  full diag
   1   -119.4081743 -0.119408E+03  0.111E-01    0.00       0.0  T
   2   -119.4081842 -0.986196E-05  0.706E-02    0.00       1.0  T
   3   -119.3908031  0.173811E-01  0.332E-01    0.03       1.0  T
   4   -119.3979245 -0.712140E-02  0.255E-01    0.03       1.0  T
   5   -119.4081909 -0.102664E-01  0.952E-03    0.00       1.2  T
   6   -119.4082005 -0.959866E-05  0.195E-03    0.00       5.9  T
   7   -119.4082008 -0.262315E-06  0.845E-04    0.00      13.6  T
   8   -119.4082008 -0.198369E-07  0.445E-04    0.00      25.8  T
     SCC iter.                  ...        0 min,  0.288 sec
     gradient                   ...        0 min,  0.120 sec
 * total energy  :  -116.9989900 Eh     change       -0.8970930E-02 Eh
   gradient norm :     0.0141736 Eh/α   predicted    -0.8100368E-02 (  -9.70%)
   displ. norm   :     0.6532972 α      lambda       -0.6910590E-02
   maximum displ.:     0.3411048 α      in ANC's #18, #20, #22, ...

........................................................................
.............................. CYCLE    5 ..............................
........................................................................

 iter      E             dE          RMSdq      gap      omega  full diag
   1   -119.3911193 -0.119391E+03  0.121E-01    0.00       0.0  T
   2   -119.3911208 -0.141596E-05  0.728E-02    0.00       1.0  T
   3   -119.3901424  0.978389E-03  0.799E-02    0.01       1.0  T
   4   -119.3673381  0.228043E-01  0.387E-01    0.04       1.0  T
   5   -119.3911259 -0.237878E-01  0.425E-03    0.00       2.7  T
   6   -119.3911274 -0.150916E-05  0.141E-03    0.00       8.2  T
   7   -119.3911275 -0.965889E-07  0.647E-04    0.00      17.7  T
   8   -119.3911275  0.105578E-08  0.404E-04    0.00      28.4  T
     SCC iter.                  ...        0 min,  0.270 sec
     gradient                   ...        0 min,  0.114 sec
 * total energy  :  -117.0044512 Eh     change       -0.5461188E-02 Eh
   gradient norm :     0.0167353 Eh/α   predicted    -0.4930012E-02 (  -9.73%)
   displ. norm   :     0.6271386 α      lambda       -0.4288682E-02
   maximum displ.:     0.3457984 α      in ANC's #18, #20, #22, ...

........................................................................
.............................. CYCLE    6 ..............................
........................................................................

 iter      E             dE          RMSdq      gap      omega  full diag
   1   -119.3817757 -0.119382E+03  0.125E-01    0.00       0.0  T
   2   -119.3817734  0.233504E-05  0.741E-02    0.00       1.0  T
   3   -119.3601282  0.216452E-01  0.369E-01    0.04       1.0  T
   4   -119.3807632 -0.206351E-01  0.808E-02    0.01       1.0  T
   5   -119.3817798 -0.101655E-02  0.394E-03    0.00       2.9  T
   6   -119.3817814 -0.161348E-05  0.134E-03    0.00       8.6  T
   7   -119.3817815 -0.113048E-06  0.622E-04    0.00      18.5  T
   8   -119.3817815 -0.529548E-08  0.335E-04    0.00      34.3  T
     SCC iter.                  ...        0 min,  0.253 sec
     gradient                   ...        0 min,  0.105 sec
 * total energy  :  -117.0076811 Eh     change       -0.3229873E-02 Eh
   gradient norm :     0.0134288 Eh/α   predicted    -0.2987723E-02 (  -7.50%)
   displ. norm   :     0.5062397 α      lambda       -0.1965222E-02
   maximum displ.:     0.2837414 α      in ANC's #18, #20, #13, ...

........................................................................
.............................. CYCLE    7 ..............................
........................................................................

 iter      E             dE          RMSdq      gap      omega  full diag
   1   -119.3774880 -0.119377E+03  0.102E-01    0.00       0.0  T
   2   -119.3774898 -0.188273E-05  0.605E-02    0.00       1.0  T
   3   -119.3774675  0.223053E-04  0.149E-02    0.00       1.0  T
   4   -119.3774650  0.256880E-05  0.131E-02    0.00       1.0  T
   5   -119.3773329  0.132026E-03  0.316E-02    0.00       1.0  T
   6   -119.3774917 -0.158797E-03  0.976E-04    0.00      11.8  T
   7   -119.3774918 -0.450926E-07  0.488E-04    0.00      23.5  T
   8   -119.3774918 -0.525614E-08  0.245E-04    0.00      46.8  T
     SCC iter.                  ...        0 min,  0.264 sec
     gradient                   ...        0 min,  0.114 sec
 * total energy  :  -117.0090125 Eh     change       -0.1331453E-02 Eh
   gradient norm :     0.0068005 Eh/α   predicted    -0.1234440E-02 (  -7.29%)
   displ. norm   :     0.2904520 α      lambda       -0.4976885E-03
   maximum displ.:     0.1487961 α      in ANC's #13, #18, #20, ...

........................................................................
.............................. CYCLE    8 ..............................
........................................................................

 iter      E             dE          RMSdq      gap      omega  full diag
   1   -119.3768740 -0.119377E+03  0.543E-02    0.00       0.0  T
   2   -119.3768746 -0.592078E-06  0.322E-02    0.00       1.0  T
   3   -119.3768633  0.113168E-04  0.959E-03    0.00       1.2  T
   4   -119.3754645  0.139880E-02  0.940E-02    0.01       1.0  T
   5   -119.3768749 -0.141040E-02  0.152E-03    0.00       7.5  T
   6   -119.3768752 -0.263930E-06  0.463E-04    0.00      24.8  T
   7   -119.3768752 -0.591453E-08  0.262E-04    0.00      43.9  T
     SCC iter.                  ...        0 min,  0.263 sec
     gradient                   ...        0 min,  0.115 sec
 * total energy  :  -117.0093340 Eh     change       -0.3214582E-03 Eh
   gradient norm :     0.0043787 Eh/α   predicted    -0.2698550E-03 ( -16.05%)
   displ. norm   :     0.1644519 α      lambda       -0.1537333E-03
   maximum displ.:     0.0982686 α      in ANC's #13, #7, #12, ...

........................................................................
.............................. CYCLE    9 ..............................
........................................................................

 iter      E             dE          RMSdq      gap      omega  full diag
   1   -119.3776809 -0.119378E+03  0.267E-02    0.00       0.0  T
   2   -119.3776810 -0.967179E-07  0.160E-02    0.00       1.0  T
   3   -119.3776647  0.163548E-04  0.105E-02    0.00       1.1  T
   4   -119.3765707  0.109400E-02  0.834E-02    0.01       1.0  T
   5   -119.3776812 -0.111055E-02  0.626E-04    0.00      18.3  T
   6   -119.3776813 -0.287318E-07  0.330E-04    0.00      34.8  T
   7   -119.3776813 -0.637050E-08  0.158E-04    0.00      72.6  T
     SCC iter.                  ...        0 min,  0.268 sec
     gradient                   ...        0 min,  0.114 sec
 * total energy  :  -117.0094496 Eh     change       -0.1156259E-03 Eh
   gradient norm :     0.0043657 Eh/α   predicted    -0.7894702E-04 ( -31.72%)
   displ. norm   :     0.1927924 α      lambda       -0.1502778E-03
   maximum displ.:     0.1072290 α      in ANC's #13, #7, #12, ...

........................................................................
.............................. CYCLE   10 ..............................
........................................................................

 iter      E             dE          RMSdq      gap      omega  full diag
   1   -119.3787242 -0.119379E+03  0.342E-02    0.00       0.0  T
   2   -119.3787243 -0.916666E-07  0.203E-02    0.00       1.0  T
   3   -119.3786712  0.530981E-04  0.186E-02    0.00       1.0  T
   4   -119.3769751  0.169610E-02  0.105E-01    0.01       1.0  T
   5   -119.3787247 -0.174958E-02  0.860E-04    0.00      13.3  T
   6   -119.3787248 -0.593052E-07  0.461E-04    0.00      24.9  T
   7   -119.3787248 -0.138526E-07  0.174E-04    0.00      66.0  T
     SCC iter.                  ...        0 min,  0.200 sec
     gradient                   ...        0 min,  0.104 sec
 * total energy  :  -117.0095634 Eh     change       -0.1137695E-03 Eh
   gradient norm :     0.0041633 Eh/α   predicted    -0.7793205E-04 ( -31.50%)
   displ. norm   :     0.2185029 α      lambda       -0.1327797E-03
   maximum displ.:     0.1189865 α      in ANC's #7, #13, #9, ...

........................................................................
.............................. CYCLE   11 ..............................
........................................................................

 iter      E             dE          RMSdq      gap      omega  full diag
   1   -119.3790655 -0.119379E+03  0.449E-02    0.00       0.0  T
   2   -119.3790654  0.728485E-07  0.265E-02    0.00       1.0  T
   3   -119.3773125  0.175292E-02  0.105E-01    0.01       1.0  T
   4   -119.3788859 -0.157342E-02  0.338E-02    0.00       1.0  T
   5   -119.3790661 -0.180263E-03  0.940E-04    0.00      12.2  T
   6   -119.3790662 -0.624775E-07  0.495E-04    0.00      23.2  T
   7   -119.3790662 -0.146055E-07  0.210E-04    0.00      54.6  T
     SCC iter.                  ...        0 min,  0.167 sec
     gradient                   ...        0 min,  0.101 sec
 * total energy  :  -117.0096612 Eh     change       -0.9783777E-04 Eh
   gradient norm :     0.0032331 Eh/α   predicted    -0.6956013E-04 ( -28.90%)
   displ. norm   :     0.2037430 α      lambda       -0.9558704E-04
   maximum displ.:     0.1150065 α      in ANC's #7, #9, #13, ...

........................................................................
.............................. CYCLE   12 ..............................
........................................................................

 iter      E             dE          RMSdq      gap      omega  full diag
   1   -119.3785448 -0.119379E+03  0.479E-02    0.00       0.0  T
   2   -119.3785447  0.125810E-06  0.283E-02    0.00       1.0  T
   3   -119.3761019  0.244272E-02  0.124E-01    0.01       1.0  T
   4   -119.3784763 -0.237438E-02  0.210E-02    0.00       1.0  T
   5   -119.3785454 -0.690600E-04  0.913E-04    0.00      12.6  T
   6   -119.3785454 -0.641385E-07  0.450E-04    0.00      25.5  T
   7   -119.3785454 -0.119410E-07  0.210E-04    0.00      54.5  T
     SCC iter.                  ...        0 min,  0.172 sec
     gradient                   ...        0 min,  0.095 sec
 * total energy  :  -117.0097294 Eh     change       -0.6822888E-04 Eh
   gradient norm :     0.0019883 Eh/α   predicted    -0.4978259E-04 ( -27.04%)
   displ. norm   :     0.2088511 α      lambda       -0.5196037E-04
   maximum displ.:     0.1249748 α      in ANC's #7, #9, #12, ...

........................................................................
.............................. CYCLE   13 ..............................
........................................................................

 iter      E             dE          RMSdq      gap      omega  full diag
   1   -119.3773960 -0.119377E+03  0.559E-02    0.00       0.0  T
   2   -119.3773954  0.620710E-06  0.329E-02    0.00       1.0  T
   3   -119.3714993  0.589607E-02  0.192E-01    0.02       1.0  T
   4   -119.3773830 -0.588367E-02  0.963E-03    0.00       1.2  T
   5   -119.3773966 -0.135857E-04  0.911E-04    0.00      12.6  T
   6   -119.3773966 -0.491872E-07  0.503E-04    0.00      22.8  T
   7   -119.3773966 -0.169334E-07  0.266E-04    0.00      43.2  T
     SCC iter.                  ...        0 min,  0.219 sec
     gradient                   ...        0 min,  0.078 sec
 * total energy  :  -117.0097694 Eh     change       -0.3999540E-04 Eh
   gradient norm :     0.0016587 Eh/α   predicted    -0.2648792E-04 ( -33.77%)
   displ. norm   :     0.0366169 α      lambda       -0.9767041E-05
   maximum displ.:     0.0207162 α      in ANC's #13, #22, #20, ...

........................................................................
.............................. CYCLE   14 ..............................
........................................................................

 iter      E             dE          RMSdq      gap      omega  full diag
   1   -119.3776327 -0.119378E+03  0.909E-03    0.00       0.0  T
   2   -119.3776326  0.105797E-06  0.548E-03    0.00       2.1  T
   3   -119.3769886  0.644023E-03  0.635E-02    0.01       1.0  T
   4   -119.3776305 -0.641962E-03  0.381E-03    0.00       3.0  T
   5   -119.3776327 -0.220331E-05  0.284E-04    0.00      40.4  T
   6   -119.3776327 -0.678318E-08  0.117E-04    0.00      98.1  T
   7   -119.3776327 -0.631402E-09  0.517E-05    0.00     221.7  T
     SCC iter.                  ...        0 min,  0.196 sec
     gradient                   ...        0 min,  0.094 sec
 * total energy  :  -117.0097791 Eh     change       -0.9640732E-05 Eh
   gradient norm :     0.0009742 Eh/α   predicted    -0.4888127E-05 ( -49.30%)
   displ. norm   :     0.0387337 α      lambda       -0.5696011E-05
   maximum displ.:     0.0223505 α      in ANC's #7, #13, #9, ...

........................................................................
.............................. CYCLE   15 ..............................
........................................................................

 iter      E             dE          RMSdq      gap      omega  full diag
   1   -119.3775298 -0.119378E+03  0.991E-03    0.00       0.0  T
   2   -119.3775287  0.106156E-05  0.641E-03    0.00       1.8  T
   3   -119.3741577  0.337105E-02  0.145E-01    0.01       1.0  T
   4   -119.3775296 -0.337192E-02  0.136E-03    0.00       8.5  T
   5   -119.3775297 -0.102210E-06  0.862E-04    0.00      13.3  T
   6   -119.3775298 -0.103252E-06  0.263E-04    0.00      43.7  T
     SCC iter.                  ...        0 min,  0.144 sec
     gradient                   ...        0 min,  0.087 sec
 * total energy  :  -117.0097845 Eh     change       -0.5447763E-05 Eh
   gradient norm :     0.0007928 Eh/α   predicted    -0.2851071E-05 ( -47.67%)
   displ. norm   :     0.0451391 α      lambda       -0.5291745E-05
   maximum displ.:     0.0285966 α      in ANC's #7, #13, #9, ...

........................................................................
.............................. CYCLE   16 ..............................
........................................................................

 iter      E             dE          RMSdq      gap      omega  full diag
   1   -119.3775338 -0.119378E+03  0.104E-02    0.00       0.0  T
   2   -119.3775335  0.311098E-06  0.629E-03    0.00       1.8  T
   3   -119.3759084  0.162513E-02  0.101E-01    0.01       1.0  T
   4   -119.3775336 -0.162523E-02  0.151E-03    0.00       7.6  T
   5   -119.3775338 -0.180480E-06  0.638E-04    0.00      18.0  T
   6   -119.3775338 -0.504973E-07  0.280E-04    0.00      41.0  T
     SCC iter.                  ...        0 min,  0.192 sec
     gradient                   ...        0 min,  0.115 sec
 * total energy  :  -117.0097901 Eh     change       -0.5616337E-05 Eh
   gradient norm :     0.0009213 Eh/α   predicted    -0.2649238E-05 ( -52.83%)
   displ. norm   :     0.0503229 α      lambda       -0.4849607E-05
   maximum displ.:     0.0333645 α      in ANC's #7, #13, #9, ...

........................................................................
.............................. CYCLE   17 ..............................
........................................................................

 iter      E             dE          RMSdq      gap      omega  full diag
   1   -119.3779270 -0.119378E+03  0.841E-03    0.00       0.0  T
   2   -119.3779257  0.126754E-05  0.573E-03    0.00       2.0  T
   3   -119.3752489  0.267687E-02  0.129E-01    0.01       1.0  T
   4   -119.3779263 -0.267742E-02  0.233E-03    0.00       4.9  T
   5   -119.3779270 -0.747969E-06  0.339E-04    0.00      33.9  T
   6   -119.3779270 -0.102341E-07  0.165E-04    0.00      69.6  T
     SCC iter.                  ...        0 min,  0.155 sec
     gradient                   ...        0 min,  0.107 sec
 * total energy  :  -117.0097959 Eh     change       -0.5745854E-05 Eh
   gradient norm :     0.0006939 Eh/α   predicted    -0.2429073E-05 ( -57.72%)
   displ. norm   :     0.0482843 α      lambda       -0.3448692E-05
   maximum displ.:     0.0359871 α      in ANC's #7, #9, #13, ...

........................................................................
.............................. CYCLE   18 ..............................
........................................................................

 iter      E             dE          RMSdq      gap      omega  full diag
   1   -119.3778867 -0.119378E+03  0.827E-03    0.00       0.0  T
   2   -119.3778848  0.190021E-05  0.599E-03    0.00       1.9  T
   3   -119.3751639  0.272092E-02  0.131E-01    0.01       1.0  T
   4   -119.3778864 -0.272244E-02  0.180E-03    0.00       6.4  T
   5   -119.3778868 -0.411615E-06  0.365E-04    0.00      31.5  T
   6   -119.3778868 -0.140537E-07  0.128E-04    0.00      89.9  T
     SCC iter.                  ...        0 min,  0.144 sec
     gradient                   ...        0 min,  0.084 sec
 * total energy  :  -117.0097998 Eh     change       -0.3862006E-05 Eh
   gradient norm :     0.0003838 Eh/α   predicted    -0.1726682E-05 ( -55.29%)
   displ. norm   :     0.0306032 α      lambda       -0.1495733E-05
   maximum displ.:     0.0254119 α      in ANC's #7, #9, #1, ...

   *** GEOMETRY OPTIMIZATION CONVERGED AFTER 18 ITERATIONS ***

------------------------------------------------------------------------
 total energy gain   :        -0.1061775 Eh      -66.6274 kcal/mol
 total RMSD          :         0.4174824 a0        0.2209 Å
 total power (kW/mol):       -15.4871596 (step)  -40.8229 (real)
------------------------------------------------------------------------

 ANCopt (total)                0 d,  0 h,  0 min,  6.829 sec
 optimizer setup                ...        0 min,  0.000 sec (  0.004%)
 model hessian                  ...        0 min,  0.042 sec (  0.611%)
 ANC generation                 ...        0 min,  0.013 sec (  0.186%)
 coordinate transformation      ...        0 min,  0.002 sec (  0.030%)
 single point calculation       ...        0 min,  6.678 sec ( 97.795%)
 optimization log               ...        0 min,  0.012 sec (  0.170%)
 hessian update                 ...        0 min,  0.065 sec (  0.955%)
 rational function              ...        0 min,  0.005 sec (  0.068%)

================
 final structure:
================
76
 xtb: 6.6.1 (8d0f1dd)
C            0.57089040947567        0.19493226668768       -0.04258078370880
C           -0.57082445556313       -0.19525935951777       -0.04322867379591
C           -6.30018115407375       -3.11966440469257       -0.11551237781489
C           -5.30729437230111       -4.07659198343727       -0.15479472837578
C           -3.97668431430513       -3.70882111110920       -0.13935101539156
C           -3.59721693909953       -2.35235162674392       -0.07302455389733
C           -4.60833361790528       -1.35110613738651       -0.06270520667839
C           -5.97826693269857       -1.74893738097019       -0.07828762335200
H           -7.34085901367309       -3.40877784721724       -0.12468302745413
H           -5.57116603294155       -5.12343676548991       -0.20196407257515
H           -3.20775237111576       -4.46448464705014       -0.19038642477639
C           -4.26649579526173        0.02410013697734       -0.04240873473581
C           -6.97370244012197       -0.76934197713856       -0.06360413921304
C           -6.66839235323675        0.59597733172251       -0.03425645585168
C           -5.31009577661026        1.02165953041469       -0.02180458142375
H           -8.01055480946601       -1.07459465149754       -0.07671869469697
C           -5.05142859788562        2.39790373309947        0.01043093869094
C           -6.07205364274910        3.31931002733621        0.02614509312951
C           -7.40600784675468        2.90100469560371        0.01041796030481
C           -7.69690795810386        1.56545100121915       -0.01834761504076
H           -4.03432233741720        2.75745114977316        0.02737797250277
H           -5.84355041954637        4.37468864390300        0.05173205141232
H           -8.19854151711182        3.63487387917381        0.02244468957532
H           -8.72268449239955        1.22539472509524       -0.02908250722052
C           -2.91418757898311        0.36504228576747       -0.04947964430117
C           -1.91822924269016       -0.60940598482924       -0.05966677674951
C           -2.23589251605165       -1.96938670747634       -0.05452759235468
H           -2.59490545534630        1.39514106024025       -0.03821362403966
C           -1.02234283370504       -3.83768016384969        1.05998006727643
C            0.05827115283657       -4.69649898363591        1.14191725946148
C            1.03931586348819       -4.67852713338376        0.16447755770532
C            0.93122092926631       -3.79957963104536       -0.90058885519950
C           -0.14518941017710       -2.93616475345641       -0.98281899347045
C           -1.13438630498146       -2.94381985775250       -0.00211626853415
H           -1.77609213794441       -3.83852776151724        1.83471039633721
H            0.13874124978288       -5.37902331217130        1.97559394058727
H            1.88499128147058       -5.34734611819505        0.23326562984198
H            1.68995810103054       -3.78484559525408       -1.67041165017472
H           -0.22908254624969       -2.25445558940421       -1.81639738833326
C            6.30005679007238        3.11972474352005       -0.11554630396375
C            5.30711922017796        4.07659986204157       -0.15476361206937
C            3.97653134265808        3.70876687344708       -0.13908327701350
C            3.59713869113146        2.35229124109383       -0.07254000138444
C            4.60830317142575        1.35110194714750       -0.06221998807457
C            5.97821319586699        1.74898896081186       -0.07815069751430
H            7.34071918770751        3.40888779707780       -0.12494474332179
H            5.57093353110809        5.12345108278528       -0.20211840884597
H            3.20755291948188        4.46438511188814       -0.19010947158863
C            4.26653096914218       -0.02411545307017       -0.04169114216203
C            6.97369118099410        0.76943372409336       -0.06380347245520
C            6.66845005655117       -0.59589845228284       -0.03438705758695
C            5.31017620614369       -1.02162965685044       -0.02125557933416
H            8.01052675187696        1.07472804594610       -0.07730251026395
C            5.05157158587931       -2.39787520682047        0.01132032558640
C            6.07223661119143       -3.31924658653486        0.02644111695266
C            7.40616578757945       -2.90090112514468        0.00977180700856
C            7.69700695472972       -1.56533767674451       -0.01912150441113
H            4.03448709000868       -2.75744928225962        0.02900424703474
H            5.84378407196087       -4.37463056091552        0.05226018008975
H            8.19872884009965       -3.63474835349526        0.02119958419441
H            8.72276717466052       -1.22525314135320       -0.03050453122889
C            2.91423941543347       -0.36510212156621       -0.04859740071414
C            1.91822452683369        0.60930220140755       -0.05892234555367
C            2.23582930951180        1.96928121771597       -0.05394256134242
H            2.59499402758879       -1.39521322722840       -0.03720572257553
C            1.02207059893319        3.83759810206400        1.06029053729816
C           -0.05852170720409        4.69647074537857        1.14196022822200
C           -1.03931775680988        4.67855848091182        0.16426797057913
C           -0.93101370911640        3.79959136259472       -0.90075884038141
C            0.14534412772780        2.93608074434898       -0.98268930394158
C            1.13430596905296        2.94370807863819       -0.00175470967839
H            1.77564952329051        3.83842732808663        1.83518766020214
H           -0.13916098502155        5.37900776649907        1.97560798435971
H           -1.88495662889768        5.34744753361872        0.23282308296324
H           -1.68954512059218        3.78492016678508       -1.67078681422338
H            0.22940618659507        2.25434876446513       -1.81623270956053

 Bond Distances (Angstroems)
 ---------------------------
C1-C2=1.2066         C1-C63=1.4097        C2-C1=1.2066         C2-C26=1.4097        C3-C4=1.3795         C3-C8=1.4085         
C3-H9=1.0801         C4-C3=1.3795         C4-C5=1.3806         C4-H10=1.0806        C5-C4=1.3806         C5-C6=1.4101         
C5-H11=1.0793        C6-C5=1.4101         C6-C7=1.4230         C6-C27=1.4143        C7-C6=1.4230         C7-C8=1.4266         
C7-C12=1.4172        C8-C3=1.4085         C8-C7=1.4266         C8-C13=1.3967        H9-C3=1.0801         H10-C4=1.0806        
H11-C5=1.0793        C12-C7=1.4172        C12-C15=1.4438       C12-C25=1.3946       C13-C8=1.3967        C13-C14=1.3993       
C13-H16=1.0809       C14-C13=1.3993       C14-C15=1.4235       C14-C20=1.4135       C15-C12=1.4438       C15-C14=1.4235       
C15-C17=1.4007       H16-C13=1.0809       C17-C15=1.4007       C17-C18=1.3751       C17-H21=1.0789       C18-C17=1.3751       
C18-C19=1.3981       C18-H22=1.0801       C19-C18=1.3981       C19-C20=1.3672       C19-H23=1.0802       C20-C14=1.4135       
C20-C19=1.3672       C20-H24=1.0807       H21-C17=1.0789       H22-C18=1.0801       H23-C19=1.0802       H24-C20=1.0807       
C25-C12=1.3946       C25-C26=1.3934       C25-H28=1.0785       C26-C2=1.4097        C26-C25=1.3934       C26-C27=1.3966       
C27-C6=1.4143        C27-C26=1.3966       C27-C34=1.4716       H28-C25=1.0785       C29-C30=1.3828       C29-C34=1.3927       
C29-H35=1.0809       C30-C29=1.3828       C30-C31=1.3850       C30-H36=1.0804       C31-C30=1.3850       C31-C32=1.3851       
C31-H37=1.0804       C32-C31=1.3851       C32-C33=1.3824       C32-H38=1.0810       C33-C32=1.3824       C33-C34=1.3930       
C33-H39=1.0801       C34-C27=1.4716       C34-C29=1.3927       C34-C33=1.3930       H35-C29=1.0809       H36-C30=1.0804       
H37-C31=1.0804       H38-C32=1.0810       H39-C33=1.0801       C40-C41=1.3795       C40-C45=1.4085       C40-H46=1.0801       
C41-C40=1.3795       C41-C42=1.3806       C41-H47=1.0806       C42-C41=1.3806       C42-C43=1.4101       C42-H48=1.0793       
C43-C42=1.4101       C43-C44=1.4230       C43-C64=1.4143       C44-C43=1.4230       C44-C45=1.4266       C44-C49=1.4172       
C45-C40=1.4085       C45-C44=1.4266       C45-C50=1.3967       H46-C40=1.0801       H47-C41=1.0806       H48-C42=1.0793       
C49-C44=1.4172       C49-C52=1.4438       C49-C62=1.3946       C50-C45=1.3967       C50-C51=1.3993       C50-H53=1.0809       
C51-C50=1.3993       C51-C52=1.4235       C51-C57=1.4135       C52-C49=1.4438       C52-C51=1.4235       C52-C54=1.4007       
H53-C50=1.0809       C54-C52=1.4007       C54-C55=1.3751       C54-H58=1.0789       C55-C54=1.3751       C55-C56=1.3981       
C55-H59=1.0801       C56-C55=1.3981       C56-C57=1.3672       C56-H60=1.0802       C57-C51=1.4135       C57-C56=1.3672       
C57-H61=1.0807       H58-C54=1.0789       H59-C55=1.0801       H60-C56=1.0802       H61-C57=1.0807       C62-C49=1.3946       
C62-C63=1.3934       C62-H65=1.0785       C63-C1=1.4097        C63-C62=1.3934       C63-C64=1.3966       C64-C43=1.4143       
C64-C63=1.3966       C64-C71=1.4716       H65-C62=1.0785       C66-C67=1.3828       C66-C71=1.3927       C66-H72=1.0809       
C67-C66=1.3828       C67-C68=1.3850       C67-H73=1.0804       C68-C67=1.3850       C68-C69=1.3851       C68-H74=1.0804       
C69-C68=1.3851       C69-C70=1.3824       C69-H75=1.0810       C70-C69=1.3824       C70-C71=1.3930       C70-H76=1.0801       
C71-C64=1.4716       C71-C66=1.3927       C71-C70=1.3930       H72-C66=1.0809       H73-C67=1.0804       H74-C68=1.0804       
H75-C69=1.0810       H76-C70=1.0801       
 C  H  Rav=1.0802 sigma=0.0007  Rmin=1.0785  Rmax=1.0810    28
 C  C  Rav=1.3989 sigma=0.0336  Rmin=1.2066  Rmax=1.4716    57

 selected bond angles (degree)
 --------------------
C63-C1-C2=178.10               C26-C2-C1=178.11               C8-C3-C4=120.75                H9-C3-C4=120.50                
H9-C3-C8=118.74                C5-C4-C3=120.57                H10-C4-C3=119.83               H10-C4-C5=119.60               
C6-C5-C4=121.07                H11-C5-C4=119.97               H11-C5-C6=118.95               C7-C6-C5=119.08                
C27-C6-C5=121.34               C27-C6-C7=119.56               C8-C7-C6=119.08                C12-C7-C6=120.76               
C12-C7-C8=120.16               C7-C8-C3=119.42                C13-C8-C3=121.33               C13-C8-C7=119.25               

 selected dihedral angles (degree)
 ---------------------------------
C26-C2-C1-C63=221.08          C5-C4-C3-C8=  0.92            C5-C4-C3-H9=180.18            H10-C4-C3-C8=181.16           
H10-C4-C3-H9=  0.42           C6-C5-C4-C3=  0.49            C6-C5-C4-H10=180.25           H11-C5-C4-C3=181.23           
H11-C5-C4-H10=  0.99          C7-C6-C5-C4=358.10            C7-C6-C5-H11=177.37           C27-C6-C5-C4=179.89           
C27-C6-C5-H11=359.16          C8-C7-C6-C5=  1.91            C8-C7-C6-C27=180.15           C12-C7-C6-C5=182.15           
C12-C7-C6-C27=  0.39          C7-C8-C3-C4=359.14            C7-C8-C3-H9=179.86            C13-C8-C3-C4=178.79           
C13-C8-C3-H9=359.51           C3-C8-C7-C6=359.44            C3-C8-C7-C12=179.20           C13-C8-C7-C6=179.78           
C13-C8-C7-C12=359.54          
           -------------------------------------------------
          |                Final Singlepoint                |
           -------------------------------------------------

          ...................................................
          :                      SETUP                      :
          :.................................................:
          :  # basis functions                 220          :
          :  # atomic orbitals                 220          :
          :  # shells                          124          :
          :  # electrons                       220          :
          :  max. iterations                   250          :
          :  Hamiltonian                  GFN2-xTB          :
          :  restarted?                      false          :
          :  GBSA solvation                  false          :
          :  PC potential                    false          :
          :  electronic temp.          300.0000000     K    :
          :  accuracy                    1.0000000          :
          :  -> integral cutoff          0.2500000E+02      :
          :  -> integral neglect         0.1000000E-07      :
          :  -> SCF convergence          0.1000000E-05 Eh   :
          :  -> wf. convergence          0.1000000E-03 e    :
          :  Broyden damping             0.4000000          :
          ...................................................

 iter      E             dE          RMSdq      gap      omega  full diag
   1   -119.3778868 -0.119378E+03  0.400E-05    0.00       0.0  T
   2   -119.3778868  0.111214E-07  0.265E-04    0.00      43.3  T
   3   -119.3778868 -0.875851E-08  0.125E-04    0.00      91.8  T

   *** convergence criteria satisfied after 3 iterations ***

         #    Occupation            Energy/Eh            Energy/eV
      -------------------------------------------------------------
         1        2.0000           -0.6542272             -17.8024
       ...           ...                  ...                  ...
       104        2.0000           -0.3985224             -10.8443
       105        2.0000           -0.3975096             -10.8168
       106        2.0000           -0.3921114             -10.6699
       107        2.0000           -0.3883687             -10.5681
       108        2.0000           -0.3814364             -10.3794
       109        2.0000           -0.3671738              -9.9913
       110        1.0044           -0.3217843              -8.7562 (HOMO)
       111        0.9956           -0.3217677              -8.7557 (LUMO)
       112                         -0.2650383              -7.2121
       113                         -0.2528901              -6.8815
       114                         -0.2433835              -6.6228
       115                         -0.2274756              -6.1899
       ...                                ...                  ...
       220                          1.4433017              39.2742
      -------------------------------------------------------------
                  HL-Gap            0.0000167 Eh            0.0005 eV
             Fermi-level           -0.3217760 Eh           -8.7560 eV

 SCC (total)                   0 d,  0 h,  0 min,  0.205 sec
 SCC setup                      ...        0 min,  0.004 sec (  1.911%)
 Dispersion                     ...        0 min,  0.007 sec (  3.285%)
 classical contributions        ...        0 min,  0.003 sec (  1.360%)
 integral evaluation            ...        0 min,  0.028 sec ( 13.493%)
 iterations                     ...        0 min,  0.072 sec ( 34.961%)
 molecular gradient             ...        0 min,  0.089 sec ( 43.317%)
 printout                       ...        0 min,  0.003 sec (  1.658%)

         :::::::::::::::::::::::::::::::::::::::::::::::::::::
         ::                     SUMMARY                     ::
         :::::::::::::::::::::::::::::::::::::::::::::::::::::
         :: total energy            -117.009799755341 Eh    ::
         :: gradient norm              0.000383910030 Eh/a0 ::
         :: HOMO-LUMO gap              0.000453145251 eV    ::
         ::.................................................::
         :: SCC energy              -119.377886775150 Eh    ::
         :: -> isotropic ES            0.004012482777 Eh    ::
         :: -> anisotropic ES          0.010092800059 Eh    ::
         :: -> anisotropic XC          0.071868993848 Eh    ::
         :: -> dispersion             -0.113664818610 Eh    ::
         :: repulsion energy           2.368352114317 Eh    ::
         :: add. restraining           0.000000000000 Eh    ::
         :: total charge               0.000000000000 e     ::
         :::::::::::::::::::::::::::::::::::::::::::::::::::::

           -------------------------------------------------
          |                Property Printout                |
           -------------------------------------------------

    * Orbital Energies and Occupations

         #    Occupation            Energy/Eh            Energy/eV
      -------------------------------------------------------------
         1        2.0000           -0.6542272             -17.8024
       ...           ...                  ...                  ...
        98        2.0000           -0.4069381             -11.0733
        99        2.0000           -0.4060085             -11.0481
       100        2.0000           -0.4058706             -11.0443
       101        2.0000           -0.4040728             -10.9954
       102        2.0000           -0.3998052             -10.8793
       103        2.0000           -0.3996919             -10.8762
       104        2.0000           -0.3985224             -10.8443
       105        2.0000           -0.3975096             -10.8168
       106        2.0000           -0.3921114             -10.6699
       107        2.0000           -0.3883687             -10.5681
       108        2.0000           -0.3814364             -10.3794
       109        2.0000           -0.3671738              -9.9913
       110        1.0044           -0.3217843              -8.7562 (HOMO)
       111        0.9956           -0.3217677              -8.7557 (LUMO)
       112                         -0.2650383              -7.2121
       113                         -0.2528901              -6.8815
       114                         -0.2433835              -6.6228
       115                         -0.2274756              -6.1899
       116                         -0.2274520              -6.1893
       117                         -0.2236528              -6.0859
       118                         -0.2232185              -6.0741
       119                         -0.2229596              -6.0670
       120                         -0.2222337              -6.0473
       121                         -0.2179351              -5.9303
       ...                                ...                  ...
       220                          1.4433017              39.2742
      -------------------------------------------------------------
                  HL-Gap            0.0000167 Eh            0.0005 eV
             Fermi-level           -0.3217760 Eh           -8.7560 eV

     #   Z          covCN         q      C6AA      α(0)
     1   6 C        1.987    -0.043    32.192     9.163
     2   6 C        1.987    -0.043    32.192     9.163
     3   6 C        2.921    -0.038    28.944     8.822
     4   6 C        2.909    -0.029    28.728     8.789
     5   6 C        2.920    -0.037    28.929     8.820
     6   6 C        2.980     0.008    27.827     8.653
     7   6 C        2.996     0.001    27.992     8.679
     8   6 C        2.975     0.013    27.730     8.638
     9   1 H        0.926     0.030     2.590     2.517
    10   1 H        0.926     0.028     2.611     2.527
    11   1 H        0.926     0.033     2.549     2.497
    12   6 C        2.973     0.005    27.908     8.665
    13   6 C        2.923    -0.046    29.133     8.851
    14   6 C        2.980     0.013    27.720     8.636
    15   6 C        2.980     0.005    27.903     8.665
    16   1 H        0.926     0.030     2.583     2.513
    17   6 C        2.918    -0.034    28.845     8.807
    18   6 C        2.917    -0.031    28.775     8.796
    19   6 C        2.914    -0.030    28.746     8.792
    20   6 C        2.922    -0.036    28.897     8.815
    21   1 H        0.926     0.033     2.549     2.497
    22   1 H        0.926     0.028     2.610     2.526
    23   1 H        0.926     0.029     2.601     2.522
    24   1 H        0.926     0.030     2.586     2.515
    25   6 C        2.931    -0.039    28.965     8.826
    26   6 C        2.971     0.031    27.314     8.573
    27   6 C        2.985    -0.000    28.027     8.684
    28   1 H        0.926     0.035     2.513     2.479
    29   6 C        2.924    -0.032    28.794     8.800
    30   6 C        2.919    -0.030    28.751     8.793
    31   6 C        2.920    -0.031    28.782     8.798
    32   6 C        2.918    -0.030    28.738     8.791
    33   6 C        2.925    -0.030    28.761     8.795
    34   6 C        2.977     0.016    27.651     8.626
    35   1 H        0.926     0.031     2.578     2.511
    36   1 H        0.926     0.030     2.593     2.518
    37   1 H        0.926     0.028     2.611     2.527
    38   1 H        0.926     0.029     2.603     2.523
    39   1 H        0.926     0.031     2.569     2.506
    40   6 C        2.921    -0.038    28.944     8.822
    41   6 C        2.909    -0.029    28.728     8.789
    42   6 C        2.920    -0.037    28.929     8.820
    43   6 C        2.980     0.008    27.827     8.653
    44   6 C        2.996     0.001    27.992     8.679
    45   6 C        2.975     0.013    27.730     8.638
    46   1 H        0.926     0.030     2.590     2.517
    47   1 H        0.926     0.028     2.611     2.527
    48   1 H        0.926     0.033     2.549     2.497
    49   6 C        2.973     0.005    27.908     8.665
    50   6 C        2.923    -0.046    29.133     8.851
    51   6 C        2.980     0.013    27.720     8.636
    52   6 C        2.980     0.005    27.903     8.665
    53   1 H        0.926     0.030     2.583     2.513
    54   6 C        2.918    -0.034    28.845     8.807
    55   6 C        2.917    -0.031    28.775     8.796
    56   6 C        2.914    -0.030    28.746     8.792
    57   6 C        2.922    -0.036    28.897     8.815
    58   1 H        0.926     0.033     2.549     2.497
    59   1 H        0.926     0.028     2.610     2.526
    60   1 H        0.926     0.029     2.601     2.522
    61   1 H        0.926     0.030     2.586     2.515
    62   6 C        2.931    -0.039    28.965     8.826
    63   6 C        2.971     0.031    27.314     8.573
    64   6 C        2.985    -0.000    28.027     8.684
    65   1 H        0.926     0.035     2.513     2.479
    66   6 C        2.924    -0.032    28.794     8.800
    67   6 C        2.919    -0.030    28.751     8.793
    68   6 C        2.920    -0.031    28.782     8.798
    69   6 C        2.918    -0.030    28.738     8.791
    70   6 C        2.925    -0.030    28.761     8.795
    71   6 C        2.977     0.016    27.651     8.626
    72   1 H        0.926     0.031     2.578     2.511
    73   1 H        0.926     0.030     2.593     2.518
    74   1 H        0.926     0.028     2.611     2.527
    75   1 H        0.926     0.029     2.603     2.523
    76   1 H        0.926     0.031     2.569     2.506

 Mol. C6AA /au·bohr⁶  :      90926.784274
 Mol. C8AA /au·bohr⁸  :    2359938.397526
 Mol. α(0) /au        :        490.909538


Wiberg/Mayer (AO) data.
largest (>0.10) Wiberg bond orders for each atom

 ---------------------------------------------------------------------------
     #   Z sym  total        # sym  WBO       # sym  WBO       # sym  WBO
 ---------------------------------------------------------------------------
     1   6 C    3.952 --     2 C    2.656    63 C    1.125
     2   6 C    3.952 --     1 C    2.656    26 C    1.125
     3   6 C    3.817 --     4 C    1.450     8 C    1.283     9 H    0.969
     4   6 C    3.987 --     3 C    1.450     5 C    1.445    10 H    0.970
     5   6 C    3.815 --     4 C    1.445     6 C    1.286    11 H    0.966
     6   6 C    3.988 --     5 C    1.286    27 C    1.262     7 C    1.248
     7   6 C    3.961 --    12 C    1.274     6 C    1.248     8 C    1.211
     8   6 C    3.990 --    13 C    1.332     3 C    1.283     7 C    1.211
     9   1 H    0.998 --     3 C    0.969
    10   1 H    0.998 --     4 C    0.970
    11   1 H    0.998 --     5 C    0.966
    12   6 C    3.987 --    25 C    1.363     7 C    1.274    15 C    1.154
    13   6 C    3.758 --     8 C    1.332    14 C    1.320    16 H    0.967
    14   6 C    3.990 --    13 C    1.320    20 C    1.266    15 C    1.237
    15   6 C    3.914 --    17 C    1.350    14 C    1.237    12 C    1.154
    16   1 H    0.998 --    13 C    0.967
    17   6 C    3.989 --    18 C    1.496    15 C    1.350    21 H    0.962
                            20 C    0.104
    18   6 C    3.921 --    17 C    1.496    19 C    1.342    22 H    0.972
    19   6 C    3.986 --    20 C    1.542    18 C    1.342    23 H    0.971
    20   6 C    3.933 --    19 C    1.542    14 C    1.266    24 H    0.969
                            17 C    0.104
    21   1 H    0.998 --    17 C    0.962
    22   1 H    0.999 --    18 C    0.972
    23   1 H    0.998 --    19 C    0.971
    24   1 H    0.999 --    20 C    0.969
    25   6 C    3.871 --    12 C    1.363    26 C    1.346    28 H    0.961
    26   6 C    3.986 --    25 C    1.346    27 C    1.338     2 C    1.125
    27   6 C    3.864 --    26 C    1.338     6 C    1.262    34 C    1.041
    28   1 H    0.998 --    25 C    0.961
    29   6 C    3.981 --    30 C    1.448    34 C    1.388    35 H    0.970
                            32 C    0.108
    30   6 C    3.991 --    29 C    1.448    31 C    1.435    36 H    0.971
                            33 C    0.109
    31   6 C    3.984 --    30 C    1.435    32 C    1.434    37 H    0.972
                            34 C    0.106
    32   6 C    3.991 --    33 C    1.450    31 C    1.434    38 H    0.970
                            29 C    0.108
    33   6 C    3.981 --    32 C    1.450    34 C    1.387    39 H    0.970
                            30 C    0.109
    34   6 C    3.987 --    29 C    1.388    33 C    1.387    27 C    1.041
                            31 C    0.106
    35   1 H    0.999 --    29 C    0.970
    36   1 H    0.998 --    30 C    0.971
    37   1 H    0.999 --    31 C    0.972
    38   1 H    0.998 --    32 C    0.970
    39   1 H    0.999 --    33 C    0.970
    40   6 C    3.817 --    41 C    1.450    45 C    1.283    46 H    0.969
    41   6 C    3.987 --    40 C    1.450    42 C    1.445    47 H    0.970
    42   6 C    3.815 --    41 C    1.445    43 C    1.286    48 H    0.966
    43   6 C    3.988 --    42 C    1.286    64 C    1.262    44 C    1.248
    44   6 C    3.961 --    49 C    1.274    43 C    1.248    45 C    1.211
    45   6 C    3.990 --    50 C    1.332    40 C    1.283    44 C    1.211
    46   1 H    0.998 --    40 C    0.969
    47   1 H    0.998 --    41 C    0.970
    48   1 H    0.998 --    42 C    0.966
    49   6 C    3.987 --    62 C    1.363    44 C    1.274    52 C    1.154
    50   6 C    3.758 --    45 C    1.332    51 C    1.320    53 H    0.967
    51   6 C    3.990 --    50 C    1.320    57 C    1.266    52 C    1.237
    52   6 C    3.914 --    54 C    1.350    51 C    1.237    49 C    1.154
    53   1 H    0.998 --    50 C    0.967
    54   6 C    3.989 --    55 C    1.496    52 C    1.350    58 H    0.962
                            57 C    0.104
    55   6 C    3.921 --    54 C    1.496    56 C    1.342    59 H    0.972
    56   6 C    3.986 --    57 C    1.542    55 C    1.342    60 H    0.971
    57   6 C    3.933 --    56 C    1.542    51 C    1.266    61 H    0.969
                            54 C    0.104
    58   1 H    0.998 --    54 C    0.962
    59   1 H    0.999 --    55 C    0.972
    60   1 H    0.998 --    56 C    0.971
    61   1 H    0.999 --    57 C    0.969
    62   6 C    3.871 --    49 C    1.363    63 C    1.346    65 H    0.961
    63   6 C    3.986 --    62 C    1.346    64 C    1.338     1 C    1.125
    64   6 C    3.864 --    63 C    1.338    43 C    1.262    71 C    1.041
    65   1 H    0.998 --    62 C    0.961
    66   6 C    3.981 --    67 C    1.448    71 C    1.388    72 H    0.970
                            69 C    0.108
    67   6 C    3.991 --    66 C    1.448    68 C    1.435    73 H    0.971
                            70 C    0.109
    68   6 C    3.984 --    67 C    1.435    69 C    1.434    74 H    0.972
                            71 C    0.106
    69   6 C    3.991 --    70 C    1.450    68 C    1.434    75 H    0.970
                            66 C    0.108
    70   6 C    3.981 --    69 C    1.450    71 C    1.387    76 H    0.970
                            67 C    0.109
    71   6 C    3.987 --    66 C    1.388    70 C    1.387    64 C    1.041
                            68 C    0.106
    72   1 H    0.999 --    66 C    0.970
    73   1 H    0.998 --    67 C    0.971
    74   1 H    0.999 --    68 C    0.972
    75   1 H    0.998 --    69 C    0.970
    76   1 H    0.999 --    70 C    0.970
 ---------------------------------------------------------------------------

Topologies differ in total number of bonds
Writing topology from bond orders to xtbtopo.mol

molecular dipole:
                 x           y           z       tot (Debye)
 q only:       -0.000       0.000      -0.007
   full:       -0.000       0.000       0.016       0.040
molecular quadrupole (traceless):
                xx          xy          yy          xz          yz          zz
 q only:        3.045      -0.732       3.451      -0.002      -0.000      -6.496
  q+dip:       16.498      -2.464      10.344      -0.006      -0.002     -26.842
   full:        7.477      -0.965       5.040      -0.004      -0.001     -12.518

           -------------------------------------------------
          |                Geometry Summary                 |
           -------------------------------------------------

      molecular mass/u    :      604.7376642
   center of mass at/Å    :       -0.0000011      -0.0000066      -0.0190945
  moments of inertia/u·Å² :        0.4711410E+04   0.1269272E+05   0.1714235E+05
rotational constants/cm⁻¹ :        0.3578044E-02   0.1328134E-02   0.9833908E-03

 * 79 selected distances

     #   Z          #   Z                                           value/Å
     1   6 C        2   6 C                                       1.2065501
     3   6 C        4   6 C                                       1.3795209
     4   6 C        5   6 C                                       1.3805859
     5   6 C        6   6 C                                       1.4101080
     6   6 C        7   6 C                                       1.4230096
     3   6 C        8   6 C                                       1.4085125
     7   6 C        8   6 C                                       1.4266149 (max)
     3   6 C        9   1 H                                       1.0801302
     4   6 C       10   1 H                                       1.0806190
     5   6 C       11   1 H                                       1.0793000
     7   6 C       12   6 C                                       1.4172007
     8   6 C       13   6 C                                       1.3966800
    13   6 C       14   6 C                                       1.3993472
    14   6 C       15   6 C                                       1.4234923
    13   6 C       16   1 H                                       1.0809321
    15   6 C       17   6 C                                       1.4007128
    17   6 C       18   6 C                                       1.3751045
    18   6 C       19   6 C                                       1.3980919
    14   6 C       20   6 C                                       1.4134981
    19   6 C       20   6 C                                       1.3671702
    17   6 C       21   1 H                                       1.0789193
    18   6 C       22   1 H                                       1.0801355
    19   6 C       23   1 H                                       1.0801937
    20   6 C       24   1 H                                       1.0807272
    12   6 C       25   6 C                                       1.3946431
    25   6 C       26   6 C                                       1.3934083
     6   6 C       27   6 C                                       1.4142874
    26   6 C       27   6 C                                       1.3965974
    25   6 C       28   1 H                                       1.0785044 (min)
    29   6 C       30   6 C                                       1.3827546
    30   6 C       31   6 C                                       1.3849767
    31   6 C       32   6 C                                       1.3851354
    32   6 C       33   6 C                                       1.3823555
    29   6 C       34   6 C                                       1.3926913
    33   6 C       34   6 C                                       1.3929635
    29   6 C       35   1 H                                       1.0809006
    30   6 C       36   1 H                                       1.0804314
    31   6 C       37   1 H                                       1.0803785
    32   6 C       38   1 H                                       1.0809841
    33   6 C       39   1 H                                       1.0801012
    40   6 C       41   6 C                                       1.3795192
    41   6 C       42   6 C                                       1.3805837
    42   6 C       43   6 C                                       1.4101040
    43   6 C       44   6 C                                       1.4230040
    40   6 C       45   6 C                                       1.4085094
    44   6 C       45   6 C                                       1.4266120
    40   6 C       46   1 H                                       1.0801306
    41   6 C       47   1 H                                       1.0806193
    42   6 C       48   1 H                                       1.0793010
    44   6 C       49   6 C                                       1.4171990
    45   6 C       50   6 C                                       1.3966786
    50   6 C       51   6 C                                       1.3993462
    51   6 C       52   6 C                                       1.4234914
    50   6 C       53   1 H                                       1.0809325
    52   6 C       54   6 C                                       1.4007104
    54   6 C       55   6 C                                       1.3751041
    55   6 C       56   6 C                                       1.3980909
    51   6 C       57   6 C                                       1.4134975
    56   6 C       57   6 C                                       1.3671699
    54   6 C       58   1 H                                       1.0789195
    55   6 C       59   1 H                                       1.0801355
    56   6 C       60   1 H                                       1.0801939
    57   6 C       61   1 H                                       1.0807272
    49   6 C       62   6 C                                       1.3946370
    62   6 C       63   6 C                                       1.3934190
    43   6 C       64   6 C                                       1.4142864
    63   6 C       64   6 C                                       1.3965819
    62   6 C       65   1 H                                       1.0785066
    66   6 C       67   6 C                                       1.3827553
    67   6 C       68   6 C                                       1.3849781
    68   6 C       69   6 C                                       1.3851337
    69   6 C       70   6 C                                       1.3823566
    66   6 C       71   6 C                                       1.3926868
    70   6 C       71   6 C                                       1.3929597
    66   6 C       72   1 H                                       1.0809013
    67   6 C       73   1 H                                       1.0804297
    68   6 C       74   1 H                                       1.0803785
    69   6 C       75   1 H                                       1.0809849
    70   6 C       76   1 H                                       1.0801017

 * 2 distinct bonds (by element types)

   Z      Z             #   av. dist./Å        max./Å        min./Å
   1 H    6 C          28     1.0801614     1.0809849     1.0785044
   6 C    6 C          51     1.3938319     1.4266149     1.2065501


optimized geometry written to: xtbopt.xyz


           -------------------------------------------------
          | TOTAL ENERGY             -117.009799755341 Eh   |
          | GRADIENT NORM               0.000383910030 Eh/α |
          | HOMO-LUMO GAP               0.000453145251 eV   |
           -------------------------------------------------

------------------------------------------------------------------------
 * finished run on 2024/10/21 at 14:22:53.837     
------------------------------------------------------------------------
 total:
 * wall-time:     0 d,  0 h,  0 min,  8.142 sec
 *  cpu-time:     0 d,  0 h,  0 min, 31.255 sec
 * ratio c/w:     3.839 speedup
 SCF:
 * wall-time:     0 d,  0 h,  0 min,  0.732 sec
 *  cpu-time:     0 d,  0 h,  0 min,  2.848 sec
 * ratio c/w:     3.891 speedup
 ANC optimizer:
 * wall-time:     0 d,  0 h,  0 min,  7.044 sec
 *  cpu-time:     0 d,  0 h,  0 min, 27.735 sec
 * ratio c/w:     3.937 speedup

