76
 energy: -116.903622308095 gnorm: 0.468316659335 xtb: 6.6.1 (8d0f1dd)
C            0.56671095522555        0.16634000173601       -0.09583801534137
C           -0.56671042369165       -0.16634082189745       -0.09583799128627
C           -6.07903156166347       -3.04278168908868       -0.10060025495323
C           -5.08043313792644       -3.99247284993354       -0.14469562119585
C           -3.75208947225868       -3.61433216363981       -0.13710495840177
C           -3.38069621150403       -2.25653501746463       -0.07134695069508
C           -4.39710834197298       -1.26192962537556       -0.06734853301730
C           -5.76546445187983       -1.67011903037798       -0.07379398361263
H           -7.11816151644005       -3.33782230500523       -0.10165920802778
H           -5.33636413757045       -5.04144985961348       -0.18988588210625
H           -2.98060260576637       -4.36636468311931       -0.19835447354429
C           -4.06447189531227        0.11414370183868       -0.06527125608464
C           -6.76761338930690       -0.69832860530046       -0.06278177391397
C           -6.47135148064483        0.66850759675168       -0.04211494741373
C           -5.11528623449427        1.10318237564616       -0.04007973251750
H           -7.80253097011341       -1.01062811084901       -0.07024711280321
C           -4.87050505201511        2.48251978917563       -0.01015056893209
C           -5.89751687271705        3.39616710930810        0.01179544850262
C           -7.22849163829101        2.96758517423855        0.00247540309630
C           -7.50774504839190        1.62988465485257       -0.02363577766048
H           -3.85702273118556        2.85177311644506        0.00016814394345
H           -5.67674788417332        4.45322287046707        0.03699797980400
H           -8.02658146018418        3.69535593042669        0.01765240770451
H           -8.53043368302788        1.28026739124824       -0.02922404163158
C           -2.70777652863316        0.45955265259352       -0.09771784080304
C           -1.71813299069095       -0.50431295298472       -0.09583771806618
C           -2.01970157803669       -1.85540685131610       -0.05428897483575
H           -2.40922063435509        1.49525438397508       -0.11596235093767
C           -0.86107071746499       -3.76566610944512        1.05098113976080
C            0.19716480693394       -4.65138304130073        1.13277580549400
C            1.20892693973033       -4.61865770445965        0.18720786003374
C            1.16225054124469       -3.68698265467363       -0.83639769102615
C            0.11010383772392       -2.79367431672131       -0.91534488423298
C           -0.92046662824767       -2.82798464088673        0.02144879155095
H           -1.64042097089771       -3.78018173448339        1.79974268115172
H            0.23409138957387       -5.36944612469118        1.93931317555401
H            2.03298128555847       -5.31408756276339        0.25045621585736
H            1.95012915717488       -3.65570617602230       -1.57573975327683
H            0.06963702164589       -2.07218780413348       -1.71897471895625
C            6.07903111247157        3.04278261199880       -0.10059997101250
C            5.08043296516671        3.99247329955040       -0.14469609735108
C            3.75208944128538        3.61433256820280       -0.13710432895058
C            3.38069531394834        2.25653486517745       -0.07134698391114
C            4.39710834951789        1.26192982736788       -0.06734874128257
C            5.76546447726605        1.67011976756245       -0.07379422155794
H            7.11816081269187        3.33782373918180       -0.10166028589500
H            5.33636262403195        5.04145127947925       -0.18988661322015
H            2.98060183275029        4.36636387002994       -0.19835446495845
C            4.06447305693637       -0.11414340377258       -0.06527153188611
C            6.76761343610561        0.69832904111632       -0.06278160297330
C            6.47135151077116       -0.66850642500185       -0.04211465236016
C            5.11528639644243       -1.10318147863941       -0.04007947502626
H            7.80253077169455        1.01062992418843       -0.07024736240409
C            4.87050699054940       -2.48251920781927       -0.01015087972659
C            5.89751835931572       -3.39616590979364        0.01179565032017
C            7.22849330703861       -2.96758300565675        0.00247555849449
C            7.50774581141366       -1.62988306077698       -0.02363580565847
H            3.85702445945163       -2.85177343667670        0.00016871103801
H            5.67674962595336       -4.45322179063343        0.03699867463443
H            8.02658352997451       -3.69535432505813        0.01765238167656
H            8.53043436666437       -1.28026601865190       -0.02922464980819
C            2.70777805574681       -0.45955235171590       -0.09771719811392
C            1.71813352222485        0.50431213282328       -0.09583828856146
C            2.01970177953238        1.85540641497979       -0.05429005734190
H            2.40922208588647       -1.49525514282550       -0.11596223441208
C            0.86106995399500        3.76566607111047        1.05098078247451
C           -0.19716533851982        4.65138204058048        1.13277615796026
C           -1.20892841142893        4.61865643465982        0.18720793748506
C           -1.16225135625015        3.68698102114407       -0.83639765476817
C           -0.11010496015540        2.79367268458972       -0.91534437856546
C            0.92046594327209        2.82798328706226        0.02144912173629
H            1.64042018494009        3.78018122540032        1.79974229813606
H           -0.23409283339731        5.36944454735883        1.93931293671388
H           -2.03298251135387        5.31408545513628        0.25045547361149
H           -1.95012987085088        3.65570384110315       -1.57573930919881
H           -0.06963760238298        2.07218731495676       -1.71897536954920
76
 energy: -116.974784201342 gnorm: 0.106534451365 xtb: 6.6.1 (8d0f1dd)
C            0.56382983410874        0.16549763626143       -0.09361470046705
C           -0.56385006698938       -0.16542455853136       -0.09313156804763
C           -6.08592541152825       -3.04712421798728       -0.10074688636486
C           -5.09004570321392       -4.00042742500634       -0.14514447067648
C           -3.76493609717620       -3.62830809135455       -0.13757268800834
C           -3.40937063233776       -2.27557209753127       -0.07077052977578
C           -4.41534782410213       -1.26861219988284       -0.06709686082378
C           -5.77655324591327       -1.67404261000101       -0.07372967363036
H           -7.12373577271047       -3.34042962277765       -0.10170301087977
H           -5.34314369555053       -5.04777610781219       -0.19027815971065
H           -2.98540355459163       -4.37187046234776       -0.19867205372661
C           -4.09895895613695        0.11245422609857       -0.06478561409980
C           -6.77474413976337       -0.69880416788896       -0.06270601543150
C           -6.48082171120749        0.66915731072100       -0.04191602788857
C           -5.13101136777057        1.10696245222083       -0.03975347548525
H           -7.80800585418551       -1.01114648621257       -0.07022993316920
C           -4.87397319033603        2.48325023646944       -0.01019101556722
C           -5.89918655357624        3.39771676326795        0.01163227159833
C           -7.23027763338957        2.96899752415439        0.00243414611203
C           -7.51278561279068        1.63171939970882       -0.02352714004690
H           -3.85855595130219        2.84898989220349        0.00141092052005
H           -5.67712438990786        4.45420953266877        0.03693683590323
H           -8.02761077194629        3.69686027605829        0.01766350132576
H           -8.53440829183394        1.28193508348921       -0.02904128258047
C           -2.76832990147870        0.45919100198049       -0.09731806450819
C           -1.81498470866140       -0.53530086567600       -0.09702931823361
C           -2.06732552047223       -1.89435972384906       -0.05730815982750
H           -2.42848168859311        1.48619070983464       -0.11371256150483
C           -0.86297935028052       -3.76748509709954        1.05167157463796
C            0.19731416470479       -4.65073408761265        1.13357606464346
C            1.20878672625107       -4.61767327916205        0.18809607786337
C            1.15898065143105       -3.68624785748145       -0.83585672422868
C            0.10198643878365       -2.79672662823443       -0.91657030651411
C           -0.93474975497837       -2.83575263074615        0.01834922807777
H           -1.64093793877432       -3.78238023355196        1.80111698307849
H            0.23460025777400       -5.36934020155740        1.93944436912111
H            2.03307912073870       -5.31333619406088        0.25070255311596
H            1.94683512979587       -3.65549158019172       -1.57649975048074
H            0.06579757399603       -2.07657521574298       -1.72091888744050
C            6.08592493882987        3.04712425146226       -0.10074676404512
C            5.09004557773544        4.00042747457814       -0.14514467890656
C            3.76493676109897        3.62830675234706       -0.13756876536358
C            3.40937437729108        2.27556982924754       -0.07075058574375
C            4.41534841710091        1.26860877116509       -0.06708697671474
C            5.77655318394746        1.67404212158849       -0.07372861213919
H            7.12373510171375        3.34043049577411       -0.10170432389118
H            5.34314214174347        5.04777682080657       -0.19027950294110
H            2.98540294403895        4.37186796271428       -0.19867166571131
C            4.09895648955493       -0.11245881636065       -0.06476405033951
C            6.77474429321841        0.69880436700574       -0.06270575837443
C            6.48082172637909       -0.66915659966717       -0.04191556632114
C            5.13101153875215       -1.10696301841348       -0.03974976334076
H            7.80800566286044        1.01114801592063       -0.07023042118795
C            4.87397497363292       -2.48325071508676       -0.01019074388985
C            5.89918842950330       -3.39771621967405        0.01163210805365
C            7.23027944529551       -2.96899591969582        0.00243419424544
C            7.51278645804257       -1.63171799069469       -0.02352753456407
H            3.85855770085957       -2.84899074285441        0.00141183359056
H            5.67712652103341       -4.45420892490750        0.03693723939208
H            8.02761284397073       -3.69685865305613        0.01766338517593
H            8.53440897993704       -1.28193344134972       -0.02904198105073
C            2.76832600719753       -0.45920360650504       -0.09730059522778
C            1.81498881489013        0.53529051945191       -0.09700971390197
C            2.06733428629744        1.89435276070222       -0.05729379588332
H            2.42847951306512       -1.48620045295831       -0.11373672325399
C            0.86297968441742        3.76748301487016        1.05166831420548
C           -0.19731416233267        4.65073162455051        1.13357499285059
C           -1.20878726629200        4.61767102588838        0.18809544836347
C           -1.15898005900035        3.68624495386936       -0.83585692612729
C           -0.10198489595648        2.79672352657671       -0.91657205986247
C            0.93475557016399        2.83575075655546        0.01834322350718
H            1.64093700757673        3.78237875665284        1.80111544759459
H           -0.23460116004784        5.36933755725804        1.93944358082612
H           -2.03307995090060        5.31333353594116        0.25070178700123
H           -1.94683530821083        3.65548867475514       -1.57649920768034
H           -0.06579831483918        2.07657314959951       -1.72092092225615
76
 energy: -116.990019084322 gnorm: 0.055869901753 xtb: 6.6.1 (8d0f1dd)
C            0.57193797512795        0.17045004202828       -0.08017756149002
C           -0.57206083242745       -0.17003115326499       -0.07882759941476
C           -6.12099632283924       -3.06140261688666       -0.10146433110314
C           -5.12904631878530       -4.02044503613732       -0.14619039690878
C           -3.80327824344503       -3.65211746801174       -0.13921687780983
C           -3.44731611846366       -2.29750653622754       -0.07420638680966
C           -4.45132252550810       -1.28566889218223       -0.06755743238960
C           -5.81216811744779       -1.68695224650099       -0.07369575544576
H           -7.15833080970950       -3.35292427870872       -0.10213148899085
H           -5.38284139003631       -5.06764289469359       -0.19135652593835
H           -3.01799400876475       -4.39018749154743       -0.19886580326805
C           -4.13861206814461        0.09769232567039       -0.06469543597165
C           -6.80666007833067       -0.70462635974877       -0.06232381485031
C           -6.51270361093721        0.66495954301656       -0.04134902955463
C           -5.16361871291446        1.09942469023667       -0.03879501029519
H           -7.83991923793767       -1.01427789999053       -0.07005734991640
C           -4.89189784216148        2.47390383982212       -0.00906274267478
C           -5.91132988945763        3.39459542456913        0.01157201718419
C           -7.24425280417311        2.97104279648514        0.00220760969752
C           -7.53722019497186        1.63520325165384       -0.02311745548139
H           -3.87370196388485        2.83309504567003        0.00481000794129
H           -5.68337313373993        4.45037721059391        0.03662750415907
H           -8.03691058771672        3.70348928015969        0.01744685862290
H           -8.56037488182108        1.29166275993366       -0.02830400846888
C           -2.80603018732882        0.44646033221423       -0.09544858168127
C           -1.85895870789363       -0.55703993295191       -0.09533417072653
C           -2.09956885927044       -1.92111752979348       -0.06301734839784
H           -2.45138103747705        1.46620967595930       -0.10726281631909
C           -0.87355644301235       -3.77595559053162        1.05005633608895
C            0.19445395501348       -4.65025088125852        1.13670519499346
C            1.20451785520213       -4.61487040728332        0.19047653280750
C            1.14523244736136       -3.68744792171741       -0.83694806540077
C            0.07764291854831       -2.81133822713498       -0.92581080844613
C           -0.95812851374479       -2.85308692003951        0.00946059015646
H           -1.64727922405321       -3.79027218530894        1.80398463939265
H            0.23666326644970       -5.36613939369782        1.94464475946861
H            2.03215849308251       -5.30699756000279        0.25304290574835
H            1.93310419379728       -3.65255343332107       -1.57771822683770
H            0.04329477066557       -2.09259603451414       -1.73093113455779
C            6.12100380967372        3.06138632555956       -0.10146001125091
C            5.12906408584667        4.02043921113685       -0.14618133251147
C            3.80330077540604        3.65211244738004       -0.13917264879057
C            3.44735474125000        2.29750101700783       -0.07410761659597
C            4.45132443408755        1.28563917691301       -0.06748463815067
C            5.81216824892651        1.68693372953163       -0.07367425296732
H            7.15833877196008        3.35290558168379       -0.10214140667596
H            5.38285831220350        5.06763655058888       -0.19136818150986
H            3.01801068166627        4.39017555837488       -0.19885524120311
C            4.13857132437841       -0.09772378467046       -0.06459530948797
C            6.80665693346813        0.70461081991105       -0.06231673823407
C            6.51268876917310       -0.66497103027326       -0.04133446999467
C            5.16359921701654       -1.09943940022447       -0.03875121595733
H            7.83991651387595        1.01426250873608       -0.07006440036377
C            4.89189153389478       -2.47391978511526       -0.00905025044125
C            5.91132877197656       -3.39460532814927        0.01156944889458
C            7.24425035012513       -2.97104847299263        0.00220497319307
C            7.53721125002021       -1.63520881083563       -0.02311964749052
H            3.87369808257089       -2.83311474468549        0.00482038574844
H            5.68337611817706       -4.45038733687826        0.03662148857245
H            8.03691139191167       -3.70349132081937        0.01744130117206
H            8.56036501345743       -1.29166349451548       -0.02831202231874
C            2.80596896620425       -0.44650303354943       -0.09546873820654
C            1.85895679653972        0.55705058872476       -0.09551605793135
C            2.09962868904025        1.92111710551494       -0.06302627472044
H            2.45131043142873       -1.46624271600764       -0.10740005736216
C            0.87357428672931        3.77594355542757        1.05003763878312
C           -0.19444106215194        4.65023475684791        1.13669714231218
C           -1.20450731120135        4.61485919735252        0.19047140249790
C           -1.14521733982943        3.68744145682274       -0.83695622682540
C           -0.07761272077612        2.81134760433664       -0.92583918113303
C            0.95817600893244        2.85309649782489        0.00941730291211
H            1.64728924932579        3.79025900685898        1.80397398263771
H           -0.23665411884404        5.36611873635030        1.94464177406093
H           -2.03215139275939        5.30698316590502        0.25304307365024
H           -1.93309724062421        3.65254188970755       -1.57771801456350
H           -0.04328270327641        2.09260746455706       -1.73096121389287
76
 energy: -116.998990013983 gnorm: 0.014173634972 xtb: 6.6.1 (8d0f1dd)
C            0.57083013473662        0.17458030716423       -0.06023381230488
C           -0.57105420932329       -0.17392994972549       -0.05985488898141
C           -6.16972622550963       -3.07624660342887       -0.10278885390057
C           -5.18129563764059       -4.03959426468723       -0.14744218031868
C           -3.85297901627440       -3.67511232885647       -0.14184661232291
C           -3.48872053031413       -2.31917299358883       -0.08032691668863
C           -4.49271411032180       -1.30597721950061       -0.06996039139825
C           -5.85737890741414       -1.70187685933794       -0.07448930232407
H           -7.20788496455791       -3.36673195215625       -0.10290607903813
H           -5.43901468656946       -5.08671271435146       -0.19134371037188
H           -3.06618539712954       -4.41213354168635       -0.19781424111944
C           -4.17684684696761        0.07686541079527       -0.06505100129007
C           -6.84883851770598       -0.71392770682705       -0.06196189688876
C           -6.55244034326678        0.65603730303940       -0.04093451552309
C           -5.20046202749475        1.08366024853343       -0.03815086323495
H           -7.88368121484852       -1.01998016163212       -0.06957806995714
C           -4.91732457963922        2.45652515750251       -0.00737886111596
C           -5.93039792212406        3.38457078063090        0.01191701298903
C           -7.26579443087221        2.96883068645807        0.00194423364983
C           -7.57029165129953        1.63520088919539       -0.02259724686312
H           -3.89690415684669        2.80845740604640        0.00834517470961
H           -5.69572771160624        4.43933297909206        0.03634467296471
H           -8.05282521450192        3.70773684493618        0.01667248612850
H           -8.59693336675280        1.30160675210346       -0.02726416401431
C           -2.83769032489758        0.42504412162994       -0.09134895141946
C           -1.88593095785622       -0.57853844495504       -0.09026806687201
C           -2.13191048054171       -1.94501820335102       -0.06931006656754
H           -2.47911784463994        1.44039320717066       -0.09808046652801
C           -0.89311456887950       -3.78972590217824        1.04709627878868
C            0.18548371161366       -4.65132382745900        1.13923155655607
C            1.19424672173315       -4.61123422122896        0.19194454505788
C            1.12236646328717       -3.68990278998777       -0.84046157122692
C            0.04334546909692       -2.82856787426237       -0.93633040109639
C           -0.99071194187773       -2.87542496756475       -0.00046633167078
H           -1.66213069200574       -3.80514159765393        1.80599708798208
H            0.23827201079023       -5.35922300588710        1.95377917349316
H            2.03066439387160       -5.29277199776789        0.25856729685488
H            1.91076970943386       -3.64775154355825       -1.58040667691729
H            0.00418527781956       -2.11609293400917       -1.74670406640810
C            6.16974438028921        3.07620908403495       -0.10280051785289
C            5.18133756297895        4.03958340092908       -0.14744848350107
C            3.85302272409654        3.67511406659270       -0.14179649802066
C            3.48877985485024        2.31917205074132       -0.08022825503900
C            4.49271135510761        1.30592876461889       -0.06988843781357
C            5.85737793759848        1.70183730853465       -0.07447947215806
H            7.20790673528684        3.36667952057458       -0.10294319359044
H            5.43906625752901        5.08669766723342       -0.19138582954508
H            3.06622230158249        4.41212614855139       -0.19778404063911
C            4.17676970242451       -0.07691245918715       -0.06498033776826
C            6.84883169215459        0.71388992733203       -0.06197007877895
C            6.55240226736780       -0.65606599333218       -0.04092619448765
C            5.20041461215888       -1.08368711265444       -0.03810258785116
H            7.88367690620883        1.01993453464944       -0.06960865288526
C            4.91729852951290       -2.45655693253717       -0.00734776653961
C            5.93037865746105       -3.38459826476019        0.01191694747601
C            7.26577386503716       -2.96885394982002        0.00193332454546
C            7.57026029803494       -1.63522339768169       -0.02261054049639
H            3.89688026984300       -2.80849189813104        0.00837833547648
H            5.69571554255351       -4.43936115337309        0.03633079870439
H            8.05281134939719       -3.70775283470963        0.01665253199416
H            8.59689970694426       -1.30161973779678       -0.02729436090172
C            2.83758531570744       -0.42511537385592       -0.09134933093163
C            1.88591650210182        0.57852865416225       -0.09030960514924
C            2.13199848286592        1.94501810197415       -0.06929861073086
H            2.47899897068494       -1.44045486302385       -0.09805956407770
C            0.89316842455643        3.78973577175561        1.04707333012584
C           -0.18544606504318        4.65131529664515        1.13922386187598
C           -1.19422074732715        4.61122453454339        0.19194802900042
C           -1.12232797301292        3.68990898279731       -0.84046833597480
C           -0.04328031626940        2.82860959669569       -0.93636179514337
C            0.99078728980268        2.87544217439957       -0.00049414647486
H            1.66216849832415        3.80514271651753        1.80598896077123
H           -0.23824653723713        5.35919836228932        1.95378472058258
H           -2.03064829216130        5.29275045508884        0.25858063918421
H           -1.91074116893890        3.64774138625908       -1.58040333707363
H           -0.00412742652112        2.11617899618164       -1.74677725615640
76
 energy: -117.004451202295 gnorm: 0.016735316001 xtb: 6.6.1 (8d0f1dd)
C            0.57167618961647        0.18024626020003       -0.04755393186219
C           -0.57185378242705       -0.17983414906215       -0.04938907020445
C           -6.22087611719194       -3.08816183814801       -0.10464314321055
C           -5.23426185756802       -4.05311554623725       -0.14849616485539
C           -3.90325233110077       -3.69230769222608       -0.14410648852293
C           -3.52818002671568       -2.33691288704095       -0.08497333162481
C           -4.53288644129944       -1.32504705006610       -0.07264800448688
C           -5.90246858570533       -1.71542937080152       -0.07629958203310
H           -7.26047029611680       -3.37771407379553       -0.10407673641422
H           -5.49758554162217       -5.09978025756153       -0.19022410569777
H           -3.12085470265836       -4.43435059111202       -0.19663805969929
C           -4.20872145791605        0.05478927311787       -0.06433830818561
C           -6.89162758462118       -0.72491575227791       -0.06210064510179
C           -6.59024460573998        0.64383144884184       -0.04087571604440
C           -5.23390951462919        1.06363026694325       -0.03776621985958
H           -7.92856034862304       -1.02749415226554       -0.06889691464209
C           -4.94591827428672        2.43525558717870       -0.00603750493032
C           -5.95383677582425        3.36920563046201        0.01229412865183
C           -7.29142816622348        2.96112448077605        0.00169795248296
C           -7.60376940791454        1.62940741954816       -0.02230546507415
H           -3.92402912038271        2.78119690556108        0.01082008886177
H           -5.71360452150062        4.42272984468559        0.03647023994291
H           -8.07384732576205        3.70565056924987        0.01564862099821
H           -8.63397938391649        1.30521699798349       -0.02653664126409
C           -2.86398334089867        0.39874151059125       -0.08437917763503
C           -1.90182547019457       -0.59798459883182       -0.08250431759498
C           -2.16538002664555       -1.96316089716517       -0.07234875593055
H           -2.51096406341374        1.41502781463677       -0.08715078622378
C           -0.91992748177694       -3.80617175186584        1.04453337438530
C            0.17074627814317       -4.65240212575929        1.14151517341250
C            1.17888343685768       -4.60452317202630        0.19363182565678
C            1.09206814225719       -3.69234092247649       -0.84586170711038
C            0.00149805297394       -2.84615346442812       -0.94637724835537
C           -1.02947048749933       -2.89851479441184       -0.00783292808997
H           -1.68644045038813       -3.82664784950272        1.80589219415995
H            0.23596653633460       -5.35152087427798        1.96309199600709
H            2.02651074558630       -5.27190024735156        0.26586571640126
H            1.87999395920878       -3.64256924049664       -1.58577166884742
H           -0.04822730349794       -2.14161761581882       -1.76347969386779
C            6.22088701337159        3.08811603750829       -0.10468299060811
C            5.23429849573366        4.05309850710939       -0.14853810645339
C            3.90328334483239        3.69231241078809       -0.14415479781020
C            3.52820150175085        2.33691453287337       -0.08505457680887
C            4.53287315320055        1.32501369099021       -0.07271273606859
C            5.90246042662809        1.71538714732886       -0.07634371359305
H            7.26048786106572        3.37764455603254       -0.10411813771216
H            5.49764514067346        5.09975757432038       -0.19026124063854
H            3.12088655907047        4.43435726476734       -0.19662524178878
C            4.20866618181891       -0.05481172553630       -0.06440743090166
C            6.89161493148109        0.72487338076992       -0.06213606471058
C            6.59020170049916       -0.64386393608664       -0.04090750048174
C            5.23386115220931       -1.06365057834605       -0.03780185175479
H            7.92855142115533        1.02743744710214       -0.06893490048540
C            4.94587986235112       -2.43528109278887       -0.00602678004066
C            5.95379740044806       -3.36923404095181        0.01229983527556
C            7.29139027615331       -2.96115727633325        0.00168639825622
C            7.60372593501589       -1.62944012913417       -0.02232502898703
H            3.92398940625359       -2.78121960186576        0.01085144808974
H            5.71356641780878       -4.42275842763819        0.03647436659219
H            8.07381309898166       -3.70567995241194        0.01563165019081
H            8.63393375674360       -1.30524229741150       -0.02656400500724
C            2.86391840049044       -0.39879498460040       -0.08421656155228
C            1.90180878025647        0.59792458177782       -0.08210191754276
C            2.16541875814271        1.96314943979393       -0.07228373804018
H            2.51089948268389       -1.41508312253451       -0.08674001607661
C            0.91997589462617        3.80620154796045        1.04456106962663
C           -0.17070767395411        4.65242071555070        1.14153783962886
C           -1.17885059453818        4.60453414358753        0.19366106519287
C           -1.09200383478786        3.69238205661932       -0.84585703792708
C           -0.00141386041491        2.84622802822452       -0.94637723451993
C            1.02951894950468        2.89852973213888       -0.00778171003899
H            1.68648260416357        3.82667802720412        1.80592431427261
H           -0.23593586343047        5.35153230953221        1.96311789121178
H           -2.02649507338800        5.27188823396702        0.26590573151282
H           -1.87992407548800        3.64259575822007       -1.58577296247152